LAMMPS (2 Apr 2025)
OMP_NUM_THREADS environment is not set. Defaulting to 1 thread. (src/comm.cpp:99)
  using 1 OpenMP thread(s) per MPI task
# Define Variables
variable temp equal 300

# Define the Units
units lj
atom_style atomic

# Create a Simulation Box
lattice fcc 0.8442
Lattice spacing in x,y,z = 1.6795962 1.6795962 1.6795962
region box block 0 10 0 10 0 10
create_box 1 box
Created orthogonal box = (0 0 0) to (16.795962 16.795962 16.795962)
  1 by 1 by 1 MPI processor grid
create_atoms 1 box
Created 4000 atoms
  using lattice units in orthogonal box = (0 0 0) to (16.795962 16.795962 16.795962)
  create_atoms CPU = 0.004 seconds

# Assign the Group to Argon and Assign it's mass
group Ar type 1
4000 atoms in group Ar
mass 1 39.948

# Define the Potential of the Simulation
pair_style lj/cut 2.5
pair_coeff 1 1 1.0 1.0

# Set the initial velocity
velocity all create ${temp} 54343
velocity all create 300 54343

# Define the Thermodynamics Output
thermo 100
thermo_style custom step temp press vol etotal

# Compute the RDF
compute RDF all rdf 100

# Run the Simulation
fix integrate1 all nvt temp ${temp} ${temp} 10.0
fix integrate1 all nvt temp 300 ${temp} 10.0
fix integrate1 all nvt temp 300 300 10.0
timestep 0.005
run 10000
Generated 0 of 0 mixed pair_coeff terms from geometric mixing rule
Neighbor list info ...
  update: every = 1 steps, delay = 0 steps, check = yes
  max neighbors/atom: 2000, page size: 100000
  master list distance cutoff = 2.8
  ghost atom cutoff = 2.8
  binsize = 1.4, bins = 12 12 12
  2 neighbor lists, perpetual/occasional/extra = 1 1 0
  (1) pair lj/cut, perpetual
      attributes: half, newton on
      pair build: half/bin/atomonly/newton
      stencil: half/bin/3d
      bin: standard
  (2) compute rdf, occasional, copy from (1)
      attributes: half, newton on
      pair build: copy
      stencil: none
      bin: none
Per MPI rank memory allocation (min/avg/max) = 3.722 | 3.722 | 3.722 Mbytes
   Step          Temp          Press          Volume         TotEng    
         0   300            246.96137      4738.2137      443.11413    
       100   256.10505      455.36124      4738.2137      442.99914    
       200   256.30664      455.8619       4738.2137      443.37359    
       300   256.33029      458.20449      4738.2137      444.09331    
       400   256.79731      459.43084      4738.2137      445.01541    
       500   257.2686       461.56374      4738.2137      446.31241    
       600   259.98295      454.35317      4738.2137      447.63343    
       700   259.15326      463.54844      4738.2137      449.20508    
       800   260.45751      463.64362      4738.2137      450.86024    
       900   260.62007      468.77624      4738.2137      452.53538    
      1000   259.92446      477.30255      4738.2137      453.99946    
      1100   265.13444      458.98203      4738.2137      455.41714    
      1200   265.83684      460.52095      4738.2137      456.72425    
      1300   265.07823      468.2804       4738.2137      458.01161    
      1400   265.3698       471.51743      4738.2137      459.25303    
      1500   266.38369      471.43372      4738.2137      460.51995    
      1600   267.85238      469.51155      4738.2137      461.81634    
      1700   266.62791      479.73979      4738.2137      463.21695    
      1800   268.68216      475.3085       4738.2137      464.58172    
      1900   269.6625       475.98722      4738.2137      466.01234    
      2000   270.98656      475.62989      4738.2137      467.59358    
      2100   270.73782      482.12702      4738.2137      469.13408    
      2200   272.85971      478.226        4738.2137      470.66148    
      2300   275.47899      472.29928      4738.2137      472.23953    
      2400   274.25166      483.74391      4738.2137      473.90061    
      2500   277.18542      476.57881      4738.2137      475.50518    
      2600   276.61643      484.69752      4738.2137      477.17528    
      2700   277.04513      488.98155      4738.2137      478.83915    
      2800   278.94218      486.17877      4738.2137      480.45581    
      2900   278.95036      492.04215      4738.2137      482.13889    
      3000   279.09424      496.82073      4738.2137      483.82393    
      3100   280.16293      497.67997      4738.2137      485.31941    
      3200   281.69642      497.00134      4738.2137      487.10352    
      3300   284.71392      489.27371      4738.2137      488.67065    
      3400   283.84836      498.54801      4738.2137      490.30692    
      3500   287.29348      489.02089      4738.2137      491.89053    
      3600   287.70044      492.42662      4738.2137      493.34107    
      3700   285.81151      506.16652      4738.2137      494.85491    
      3800   287.35525      505.09227      4738.2137      496.47882    
      3900   285.65465      517.9324       4738.2137      497.9914     
      4000   289.80236      504.2429       4738.2137      499.34802    
      4100   291.20919      503.20593      4738.2137      500.82641    
      4200   292.03947      504.68639      4738.2137      502.35932    
      4300   292.91372      506.09346      4738.2137      503.75878    
      4400   292.48301      512.90953      4738.2137      505.13112    
      4500   294.42197      508.74658      4738.2137      506.46606    
      4600   295.57698      508.6253       4738.2137      507.8721     
      4700   295.48579      513.33955      4738.2137      509.13573    
      4800   298.45662      504.97793      4738.2137      510.42994    
      4900   295.88623      520.75888      4738.2137      511.65227    
      5000   297.80139      516.74382      4738.2137      512.99412    
      5100   297.19912      523.63864      4738.2137      514.12996    
      5200   299.20423      518.8446       4738.2137      515.26752    
      5300   299.40605      521.76235      4738.2137      516.44736    
      5400   301.18374      517.40005      4738.2137      517.4924     
      5500   304.23217      508.03764      4738.2137      518.56051    
      5600   300.13449      529.48561      4738.2137      519.61398    
      5700   302.58943      522.07836      4738.2137      520.54147    
      5800   302.22919      526.61069      4738.2137      521.42155    
      5900   302.67994      527.83691      4738.2137      522.2831     
      6000   306.05757      515.55679      4738.2137      523.10943    
      6100   302.82608      532.93697      4738.2137      523.85234    
      6200   304.71214      527.43474      4738.2137      524.67272    
      6300   305.00203      528.82158      4738.2137      525.3656     
      6400   306.09709      525.80782      4738.2137      525.97526    
      6500   305.05636      532.12618      4738.2137      526.52285    
      6600   307.68399      522.77342      4738.2137      527.15707    
      6700   307.2519       526.51133      4738.2137      527.64529    
      6800   307.94579      525.06026      4738.2137      528.13596    
      6900   308.45922      524.36055      4738.2137      528.48289    
      7000   307.0115       531.6165       4738.2137      528.85878    
      7100   305.80493      538.2947       4738.2137      529.13525    
      7200   308.96096      525.04086      4738.2137      529.40603    
      7300   307.31373      533.00766      4738.2137      529.62377    
      7400   307.94485      530.83028      4738.2137      529.73123    
      7500   308.99557      526.13         4738.2137      529.77141    
      7600   308.2313       529.74707      4738.2137      529.77552    
      7700   306.10937      538.67319      4738.2137      529.6679     
      7800   307.82875      530.6517       4738.2137      529.56877    
      7900   307.4582       531.4839       4738.2137      529.29543    
      8000   304.63516      542.83038      4738.2137      529.00031    
      8100   309.83233      518.50398      4738.2137      528.67671    
      8200   306.01107      534.40896      4738.2137      528.40334    
      8300   307.8255       524.93806      4738.2137      527.93591    
      8400   306.0752       531.07294      4738.2137      527.44538    
      8500   306.4206       527.77081      4738.2137      526.91334    
      8600   307.45851      521.22605      4738.2137      526.36572    
      8700   304.43247      532.83408      4738.2137      525.81202    
      8800   302.91757      536.61639      4738.2137      525.08608    
      8900   304.90522      525.36927      4738.2137      524.29021    
      9000   305.00189      522.75925      4738.2137      523.68138    
      9100   302.78115      529.7221       4738.2137      522.88872    
      9200   304.12838      521.01963      4738.2137      522.19928    
      9300   304.0752       518.88976      4738.2137      521.44154    
      9400   302.74193      521.60288      4738.2137      520.63771    
      9500   302.70989      518.80366      4738.2137      519.80502    
      9600   299.82605      529.28646      4738.2137      519.00181    
      9700   301.42422      518.99016      4738.2137      518.18332    
      9800   300.50912      520.42011      4738.2137      517.3797     
      9900   300.52192      517.04146      4738.2137      516.50828    
     10000   299.08625      521.24225      4738.2137      515.81447    
Loop time of 116.259 on 1 procs for 10000 steps with 4000 atoms

Performance: 37158.326 tau/day, 86.015 timesteps/s, 344.059 katom-step/s
100.0% CPU use with 1 MPI tasks x 1 OpenMP threads

MPI task timing breakdown:
Section |  min time  |  avg time  |  max time  |%varavg| %total
---------------------------------------------------------------
Pair    | 60.991     | 60.991     | 60.991     |   0.0 | 52.46
Neigh   | 51.005     | 51.005     | 51.005     |   0.0 | 43.87
Comm    | 2.0603     | 2.0603     | 2.0603     |   0.0 |  1.77
Output  | 0.0042463  | 0.0042463  | 0.0042463  |   0.0 |  0.00
Modify  | 1.5699     | 1.5699     | 1.5699     |   0.0 |  1.35
Other   |            | 0.6282     |            |       |  0.54

Nlocal:           4000 ave        4000 max        4000 min
Histogram: 1 0 0 0 0 0 0 0 0 0
Nghost:           5511 ave        5511 max        5511 min
Histogram: 1 0 0 0 0 0 0 0 0 0
Neighs:         153823 ave      153823 max      153823 min
Histogram: 1 0 0 0 0 0 0 0 0 0

Total # of neighbors = 153823
Ave neighs/atom = 38.45575
Neighbor list builds = 3338
Dangerous builds = 0

unfix integrate1

# Output the RDF Data to the Dump Folder
fix integrate2 all nvt temp ${temp} ${temp} 10.0
fix integrate2 all nvt temp 300 ${temp} 10.0
fix integrate2 all nvt temp 300 300 10.0
fix 1 all ave/time 100 10 1000 c_RDF[*] file RDF.data mode vector

run 50000
Generated 0 of 0 mixed pair_coeff terms from geometric mixing rule
Per MPI rank memory allocation (min/avg/max) = 3.722 | 3.722 | 3.722 Mbytes
   Step          Temp          Press          Volume         TotEng    
     10000   299.08625      521.24225      4738.2137      515.81447    
     10100   296.89207      530.64973      4738.2137      515.77511    
     10200   299.47811      519.56913      4738.2137      515.89271    
     10300   299.64943      519.42406      4738.2137      515.9676     
     10400   300.37032      515.79252      4738.2137      515.97412    
     10500   299.5403       520.00082      4738.2137      516.09903    
     10600   301.02872      513.65331      4738.2137      516.09132    
     10700   300.84534      514.70783      4738.2137      516.24279    
     10800   300.36166      516.85432      4738.2137      516.2343     
     10900   301.11864      513.71031      4738.2137      516.29397    
     11000   298.82539      523.72625      4738.2137      516.30584    
     11100   301.75242      510.6981       4738.2137      516.24461    
     11200   301.88904      510.14676      4738.2137      516.24483    
     11300   299.53626      520.40171      4738.2137      516.22406    
     11400   300.6869       515.62943      4738.2137      516.28391    
     11500   300.07367      518.23905      4738.2137      516.32227    
     11600   299.71067      519.96868      4738.2137      516.24001    
     11700   300.27515      518.22167      4738.2137      516.52721    
     11800   299.72371      520.51452      4738.2137      516.50219    
     11900   300.14033      519.22118      4738.2137      516.65102    
     12000   300.16308      518.76342      4738.2137      516.58504    
     12100   300.66648      516.46811      4738.2137      516.55914    
     12200   297.71403      529.95431      4738.2137      516.60949    
     12300   301.15959      515.00297      4738.2137      516.66215    
     12400   300.4377       518.34189      4738.2137      516.78332    
     12500   298.96312      524.64917      4738.2137      516.66866    
     12600   301.52376      513.52305      4738.2137      516.72937    
     12700   299.09999      524.19546      4738.2137      516.70876    
     12800   298.8762       525.62149      4738.2137      516.81986    
     12900   299.60325      522.53103      4738.2137      516.82786    
     13000   297.32559      533.13627      4738.2137      517.03797    
     13100   300.34243      519.5606       4738.2137      516.99598    
     13200   303.28021      507.1789       4738.2137      517.12985    
     13300   300.20597      520.84068      4738.2137      517.13842    
     13400   300.62126      519.33642      4738.2137      517.3103     
     13500   299.88706      523.08953      4738.2137      517.33987    
     13600   301.8122       514.5002       4738.2137      517.47893    
     13700   300.47575      520.7282       4738.2137      517.50354    
     13800   302.47476      512.24813      4738.2137      517.57189    
     13900   302.41533      512.81776      4738.2137      517.64451    
     14000   301.68649      515.921        4738.2137      517.60353    
     14100   298.74224      528.7228       4738.2137      517.58845    
     14200   301.59776      516.27101      4738.2137      517.64268    
     14300   300.13249      523.15953      4738.2137      517.69665    
     14400   298.98785      528.07286      4738.2137      517.72736    
     14500   301.68027      516.30959      4738.2137      517.68308    
     14600   300.80892      520.24414      4738.2137      517.77576    
     14700   301.10054      519.06967      4738.2137      517.77149    
     14800   299.76263      524.7509       4738.2137      517.72408    
     14900   301.8153       515.24522      4738.2137      517.67932    
     15000   299.81949      524.89996      4738.2137      517.77531    
     15100   299.46711      526.23839      4738.2137      517.70523    
     15200   300.37311      522.23707      4738.2137      517.76584    
     15300   300.13667      523.50305      4738.2137      517.82421    
     15400   301.44184      516.92819      4738.2137      517.69484    
     15500   297.29442      535.50628      4738.2137      517.72224    
     15600   299.25515      526.96168      4738.2137      517.60553    
     15700   299.81813      523.77769      4738.2137      517.55948    
     15800   299.74674      523.45059      4738.2137      517.34308    
     15900   298.93129      527.48833      4738.2137      517.43419    
     16000   299.49236      523.92599      4738.2137      517.20385    
     16100   298.62004      528.24855      4738.2137      517.20465    
     16200   300.86495      517.62505      4738.2137      517.05639    
     16300   301.33543      515.16035      4738.2137      516.93707    
     16400   300.65398      517.43874      4738.2137      516.73598    
     16500   300.17197      518.71617      4738.2137      516.5802     
     16600   299.05504      523.85126      4738.2137      516.51531    
     16700   300.44434      516.65889      4738.2137      516.3198     
     16800   299.22015      521.73461      4738.2137      516.27676    
     16900   298.8175       523.04334      4738.2137      516.02774    
     17000   298.77572      522.6531       4738.2137      515.8946     
     17100   298.7962       522.22341      4738.2137      515.75835    
     17200   300.30606      514.53698      4738.2137      515.48153    
     17300   298.93913      520.41188      4738.2137      515.42614    
     17400   300.10802      514.20028      4738.2137      515.13404    
     17500   300.11569      513.94925      4738.2137      515.0808     
     17600   300.81872      510.19082      4738.2137      514.89821    
     17700   297.48353      524.12942      4738.2137      514.64976    
     17800   299.2593       515.8926       4738.2137      514.54945    
     17900   300.34972      509.76331      4738.2137      514.33667    
     18000   298.40634      518.30512      4738.2137      514.14639    
     18100   297.70505      520.88561      4738.2137      514.04371    
     18200   299.71976      511.21467      4738.2137      513.8471     
     18300   298.46715      516.6295       4738.2137      513.76879    
     18400   297.61982      519.59709      4738.2137      513.50958    
     18500   299.18986      512.42043      4738.2137      513.47455    
     18600   298.47996      515.15114      4738.2137      513.3999     
     18700   298.18485      516.72097      4738.2137      513.37605    
     18800   297.46361      519.12447      4738.2137      513.26147    
     18900   298.70643      513.4665       4738.2137      513.22347    
     19000   296.47141      523.54809      4738.2137      513.23154    
     19100   298.04435      515.88419      4738.2137      513.10929    
     19200   298.4148       514.2132       4738.2137      512.99224    
     19300   298.14708      515.13605      4738.2137      512.93235    
     19400   296.58001      522.28602      4738.2137      512.96736    
     19500   299.18338      510.88311      4738.2137      512.96692    
     19600   297.76416      516.81969      4738.2137      512.93383    
     19700   296.73117      521.87884      4738.2137      513.00266    
     19800   296.17345      523.80249      4738.2137      512.9769     
     19900   297.78366      517.32194      4738.2137      513.08198    
     20000   298.13678      515.97614      4738.2137      513.16624    
     20100   299.64091      509.66974      4738.2137      513.25456    
     20200   298.50161      515.14623      4738.2137      513.4292     
     20300   297.77625      518.37041      4738.2137      513.39166    
     20400   298.72576      514.86319      4738.2137      513.56024    
     20500   297.7311       520.00483      4738.2137      513.67184    
     20600   299.67141      511.50659      4738.2137      513.83766    
     20700   298.46861      517.80988      4738.2137      514.09112    
     20800   296.71576      526.22987      4738.2137      514.30328    
     20900   297.96297      521.27683      4738.2137      514.50002    
     21000   300.48209      510.91059      4738.2137      514.71696    
     21100   298.89212      519.14962      4738.2137      514.96247    
     21200   300.03785      514.82041      4738.2137      515.25489    
     21300   298.90178      520.77908      4738.2137      515.59744    
     21400   298.13269      525.31075      4738.2137      515.86597    
     21500   301.75132      510.9418       4738.2137      516.30425    
     21600   300.99116      515.62956      4738.2137      516.71217    
     21700   300.16077      520.63211      4738.2137      517.06398    
     21800   302.16474      513.36319      4738.2137      517.49846    
     21900   300.67305      521.19615      4738.2137      517.80158    
     22000   301.3166       520.21298      4738.2137      518.41948    
     22100   301.5714       520.16217      4738.2137      518.73114    
     22200   301.72413      521.3258       4738.2137      519.2019     
     22300   299.99558      529.9948       4738.2137      519.5011     
     22400   303.84215      514.61408      4738.2137      519.97338    
     22500   301.9038       525.02504      4738.2137      520.52133    
     22600   302.17273      525.50821      4738.2137      520.95669    
     22700   303.36833      522.02949      4738.2137      521.41763    
     22800   302.54645      527.07828      4738.2137      521.94544    
     22900   303.75164      523.65589      4738.2137      522.36166    
     23000   305.5182       517.26887      4738.2137      522.76195    
     23100   303.15535      529.12726      4738.2137      523.15854    
     23200   303.93434      527.17903      4738.2137      523.68297    
     23300   304.16765      527.70386      4738.2137      524.07362    
     23400   306.56023      518.18159      4738.2137      524.36872    
     23500   304.05337      530.68876      4738.2137      524.85526    
     23600   305.39262      525.59362      4738.2137      525.09336    
     23700   305.84387      524.40807      4738.2137      525.24377    
     23800   305.92787      524.72392      4738.2137      525.58944    
     23900   305.38866      527.44178      4738.2137      525.66024    
     24000   306.61659      522.99683      4738.2137      525.82493    
     24100   303.86018      535.37471      4738.2137      525.87287    
     24200   303.18257      538.55502      4738.2137      525.946      
     24300   306.64269      522.88676      4738.2137      525.91537    
     24400   307.27726      520.63056      4738.2137      525.97389    
     24500   305.13729      529.77898      4738.2137      525.88129    
     24600   303.83512      535.42889      4738.2137      525.75909    
     24700   305.80345      525.98949      4738.2137      525.58557    
     24800   307.62517      516.37494      4738.2137      525.26459    
     24900   307.22522      517.67428      4738.2137      525.07536    
     25000   304.13848      530.15767      4738.2137      524.83375    
     25100   303.58107      531.19585      4738.2137      524.35309    
     25200   304.60212      524.92889      4738.2137      523.90369    
     25300   302.52511      532.24561      4738.2137      523.32414    
     25400   303.51814      526.41825      4738.2137      522.97813    
     25500   304.41393      520.61604      4738.2137      522.3456     
     25600   302.00109      528.46995      4738.2137      521.61149    
     25700   303.84622      517.55046      4738.2137      520.84092    
     25800   303.07047      517.93891      4738.2137      520.06615    
     25900   303.49306      513.45715      4738.2137      519.19464    
     26000   302.28753      515.86828      4738.2137      518.3076     
     26100   298.88818      527.38009      4738.2137      517.39195    
     26200   297.32861      531.62506      4738.2137      516.56063    
     26300   299.92479      516.72132      4738.2137      515.64459    
     26400   298.81287      518.52377      4738.2137      514.76991    
     26500   298.46844      517.1721       4738.2137      513.94018    
     26600   298.03609      516.40266      4738.2137      513.20306    
     26700   296.74284      519.35811      4738.2137      512.36714    
     26800   295.61224      521.95578      4738.2137      511.77004    
     26900   297.31295      512.28022      4738.2137      511.05628    
     27000   295.30405      519.01607      4738.2137      510.4784     
     27100   297.22783      508.63677      4738.2137      509.92116    
     27200   296.41595      510.69739      4738.2137      509.47326    
     27300   294.72508      516.77313      4738.2137      509.08455    
     27400   294.85388      514.78039      4738.2137      508.70205    
     27500   297.31608      502.71214      4738.2137      508.47886    
     27600   292.86045      522.11787      4738.2137      508.2959     
     27700   296.07691      506.96708      4738.2137      508.06321    
     27800   294.83823      512.30034      4738.2137      507.91364    
     27900   295.00979      510.95952      4738.2137      507.85431    
     28000   295.6755       507.33239      4738.2137      507.67777    
     28100   295.59074      507.6437       4738.2137      507.63042    
     28200   294.80077      511.18425      4738.2137      507.5892     
     28300   293.21979      518.20903      4738.2137      507.63227    
     28400   294.82864      511.84654      4738.2137      507.8761     
     28500   294.19835      514.59026      4738.2137      507.82284    
     28600   295.85983      508.26416      4738.2137      508.10453    
     28700   294.81294      513.35729      4738.2137      508.30115    
     28800   296.48635      506.911        4738.2137      508.5242     
     28900   297.95922      501.63527      4738.2137      508.92747    
     29000   296.01839      511.55391      4738.2137      509.19642    
     29100   294.58531      519.13792      4738.2137      509.64994    
     29200   295.86871      514.41295      4738.2137      509.86715    
     29300   296.94878      510.87222      4738.2137      510.18602    
     29400   295.93122      516.30232      4738.2137      510.4823     
     29500   296.36207      515.42028      4738.2137      510.88316    
     29600   299.50158      502.83152      4738.2137      511.1257     
     29700   296.24669      518.68571      4738.2137      511.64306    
     29800   298.82779      508.54624      4738.2137      511.99079    
     29900   298.20431      512.98359      4738.2137      512.34428    
     30000   298.26573      513.99381      4738.2137      512.76801    
     30100   298.81597      513.01809      4738.2137      513.15386    
     30200   297.94302      518.60825      4738.2137      513.64236    
     30300   299.47432      513.00343      4738.2137      514.04093    
     30400   300.20689      511.34115      4738.2137      514.47424    
     30500   299.15917      517.58756      4738.2137      514.86311    
     30600   297.24563      527.43941      4738.2137      515.27064    
     30700   299.40558      519.51979      4738.2137      515.7753     
     30800   299.95841      518.40698      4738.2137      516.09988    
     30900   299.41631      521.5732       4738.2137      516.40635    
     31000   297.22956      532.27222      4738.2137      516.7179     
     31100   300.33608      519.93325      4738.2137      517.0887     
     31200   301.26558      517.08961      4738.2137      517.3985     
     31300   302.8989       510.67645      4738.2137      517.65338    
     31400   301.09224      519.6266       4738.2137      517.91541    
     31500   301.12574      520.30015      4738.2137      518.07693    
     31600   301.7409       518.55834      4738.2137      518.42609    
     31700   300.49308      524.79615      4738.2137      518.63355    
     31800   303.42877      512.41628      4738.2137      518.81565    
     31900   302.47141      517.3213       4738.2137      519.03199    
     32000   302.12112      519.54464      4738.2137      519.28273    
     32100   300.29553      528.47964      4738.2137      519.41251    
     32200   299.69659      531.63458      4738.2137      519.56951    
     32300   302.11351      521.18822      4738.2137      519.69323    
     32400   301.38464      524.89928      4738.2137      519.86197    
     32500   301.19615      526.45126      4738.2137      520.06727    
     32600   304.83353      510.73561      4738.2137      519.96883    
     32700   301.45379      525.5966       4738.2137      520.10318    
     32800   302.43541      521.46877      4738.2137      520.1437     
     32900   303.18348      518.1916       4738.2137      520.20271    
     33000   301.43901      526.08928      4738.2137      520.18738    
     33100   301.57147      525.13656      4738.2137      520.10973    
     33200   302.72536      519.80221      4738.2137      520.13096    
     33300   301.55503      524.77015      4738.2137      519.99889    
     33400   301.63068      524.07953      4738.2137      519.87443    
     33500   302.15247      521.43002      4738.2137      519.84377    
     33600   302.67015      519.23394      4738.2137      519.74354    
     33700   302.67287      518.19382      4738.2137      519.52768    
     33800   302.04459      520.43511      4738.2137      519.41761    
     33900   302.45742      517.97745      4738.2137      519.17352    
     34000   301.59301      521.91512      4738.2137      519.15737    
     34100   302.05001      519.541        4738.2137      519.01291    
     34200   300.27902      526.65078      4738.2137      518.92593    
     34300   300.61966      524.68945      4738.2137      518.69721    
     34400   300.25125      525.47733      4738.2137      518.5489     
     34500   301.02137      521.53392      4738.2137      518.38675    
     34600   300.32183      523.43758      4738.2137      518.04545    
     34700   298.97041      528.88363      4738.2137      517.94755    
     34800   300.22306      522.77395      4738.2137      517.75768    
     34900   299.50894      525.12042      4738.2137      517.49046    
     35000   299.73119      524.1121       4738.2137      517.44749    
     35100   302.5017       511.2278       4738.2137      517.28616    
     35200   300.69135      518.21333      4738.2137      517.0651     
     35300   300.5888       518.11795      4738.2137      516.88458    
     35400   301.33947      514.43213      4738.2137      516.78622    
     35500   301.22634      514.30096      4738.2137      516.60862    
     35600   299.30499      522.54238      4738.2137      516.52504    
     35700   300.19239      517.70696      4738.2137      516.27427    
     35800   299.66135      519.93127      4738.2137      516.19739    
     35900   298.9179       523.09357      4738.2137      516.14392    
     36000   299.32336      521.00747      4738.2137      515.98631    
     36100   299.45082      519.32276      4738.2137      515.80428    
     36200   299.22508      520.27477      4738.2137      515.78347    
     36300   299.77595      517.66884      4738.2137      515.70618    
     36400   300.60308      513.83617      4738.2137      515.67955    
     36500   299.06739      520.24117      4738.2137      515.54938    
     36600   299.53711      517.38218      4738.2137      515.40451    
     36700   298.70056      521.47397      4738.2137      515.5041     
     36800   299.41681      518.38652      4738.2137      515.4253     
     36900   298.13058      523.80706      4738.2137      515.41221    
     37000   299.40406      518.4218       4738.2137      515.38128    
     37100   299.98377      515.69502      4738.2137      515.34934    
     37200   298.5332       521.84494      4738.2137      515.42389    
     37300   300.49688      513.21302      4738.2137      515.33484    
     37400   300.47251      513.08018      4738.2137      515.28099    
     37500   300.4315       513.35058      4738.2137      515.38889    
     37600   299.9003       515.57344      4738.2137      515.29841    
     37700   297.04309      528.74452      4738.2137      515.37184    
     37800   296.34498      531.77579      4738.2137      515.39382    
     37900   299.79012      516.86596      4738.2137      515.4235     
     38000   298.19172      524.05567      4738.2137      515.53164    
     38100   300.09992      515.36848      4738.2137      515.47271    
     38200   301.09586      511.1867       4738.2137      515.54952    
     38300   299.04725      520.23174      4738.2137      515.48898    
     38400   301.61877      508.86063      4738.2137      515.5469     
     38500   299.84417      517.28582      4738.2137      515.62317    
     38600   298.6827       522.61269      4738.2137      515.72809    
     38700   297.78829      526.00523      4738.2137      515.67144    
     38800   299.4851       518.70841      4738.2137      515.59533    
     38900   300.07206      516.45929      4738.2137      515.67312    
     39000   300.26269      515.55453      4738.2137      515.65704    
     39100   299.65673      518.18023      4738.2137      515.71149    
     39200   301.45006      510.5463       4738.2137      515.76984    
     39300   299.51271      519.37155      4738.2137      515.90464    
     39400   298.28466      525.01084      4738.2137      515.88829    
     39500   300.22506      516.53687      4738.2137      515.86981    
     39600   303.21486      503.31789      4738.2137      515.89154    
     39700   299.5692       520.02749      4738.2137      516.10698    
     39800   299.85643      518.87659      4738.2137      516.21217    
     39900   300.71621      515.16081      4738.2137      516.13343    
     40000   299.13415      522.0843       4738.2137      516.22298    
     40100   300.52927      516.27608      4738.2137      516.28925    
     40200   301.24023      513.09456      4738.2137      516.25923    
     40300   300.24928      518.23951      4738.2137      516.43123    
     40400   300.67573      516.2589       4738.2137      516.42952    
     40500   301.04174      514.41859      4738.2137      516.43485    
     40600   301.99143      510.09902      4738.2137      516.45342    
     40700   299.47248      521.94795      4738.2137      516.49954    
     40800   300.49239      517.5821       4738.2137      516.58721    
     40900   301.39999      513.3843       4738.2137      516.61181    
     41000   301.80574      511.56044      4738.2137      516.55182    
     41100   300.04273      520.01579      4738.2137      516.72432    
     41200   301.66338      512.94608      4738.2137      516.71643    
     41300   298.59127      526.44453      4738.2137      516.75436    
     41400   300.05292      520.56756      4738.2137      516.89555    
     41500   301.32916      515.19568      4738.2137      516.93323    
     41600   298.56441      528.04439      4738.2137      517.04005    
     41700   300.23675      520.30739      4738.2137      516.97976    
     41800   300.01532      521.0879       4738.2137      517.03579    
     41900   300.39068      519.61489      4738.2137      517.0844     
     42000   301.36936      515.30916      4738.2137      517.07784    
     42100   302.85768      508.80162      4738.2137      517.10869    
     42200   299.86293      522.18594      4738.2137      517.0925     
     42300   301.26626      516.03297      4738.2137      517.10224    
     42400   300.29831      520.25103      4738.2137      517.11961    
     42500   299.82801      525.5974       4738.2137      518.05171    
     42600   300.35018      522.72508      4738.2137      517.93692    
     42700   298.13001      532.79846      4738.2137      517.97646    
     42800   300.85091      520.75232      4738.2137      517.98993    
     42900   300.99659      519.89773      4738.2137      517.90232    
     43000   300.2238       523.60097      4738.2137      517.90112    
     43100   299.93373      524.69452      4738.2137      518.09279    
     43200   299.71307      525.71489      4738.2137      517.85747    
     43300   300.85714      520.39141      4738.2137      517.83919    
     43400   302.29538      512.7901       4738.2137      517.57839    
     43500   300.4502       521.23863      4738.2137      517.55574    
     43600   300.85286      519.01975      4738.2137      517.42445    
     43700   302.01928      513.04513      4738.2137      517.27878    
     43800   299.33262      524.81556      4738.2137      517.18378    
     43900   299.27621      523.89257      4738.2137      516.91667    
     44000   298.91778      525.24709      4738.2137      516.83304    
     44100   300.74342      516.48309      4738.2137      516.59896    
     44200   300.00669      518.71296      4738.2137      516.36034    
     44300   300.83646      514.27391      4738.2137      516.16122    
     44400   299.51694      519.26251      4738.2137      515.79968    
     44500   299.32839      518.81753      4738.2137      515.42459    
     44600   299.92447      515.2916       4738.2137      515.23741    
     44700   301.92884      505.22258      4738.2137      514.82811    
     44800   299.1448       516.62048      4738.2137      514.57211    
     44900   298.72483      517.37154      4738.2137      514.29538    
     45000   298.03862      519.23625      4738.2137      513.95177    
     45100   298.15592      517.46198      4738.2137      513.57185    
     45200   296.80823      522.25908      4738.2137      513.18097    
     45300   299.56247      509.0358       4738.2137      512.97632    
     45400   299.73234      506.11663      4738.2137      512.39947    
     45500   298.36527      510.71061      4738.2137      512.03693    
     45600   297.43656      513.4031       4738.2137      511.49263    
     45700   297.08389      513.48616      4738.2137      511.12344    
     45800   294.25484      524.24359      4738.2137      510.65354    
     45900   296.14218      513.82841      4738.2137      510.05693    
     46000   297.41832      506.92541      4738.2137      509.71113    
     46100   295.28196      514.70675      4738.2137      509.21848    
     46200   295.18756      513.40504      4738.2137      508.7363     
     46300   296.38066      506.83442      4738.2137      508.32573    
     46400   293.96631      515.8993       4738.2137      507.94112    
     46500   295.31103      508.70215      4738.2137      507.51147    
     46600   293.46003      515.57558      4738.2137      507.08795    
     46700   293.41121      514.66859      4738.2137      506.79083    
     46800   295.49039      504.52881      4738.2137      506.52805    
     46900   293.61019      512.19083      4738.2137      506.38188    
     47000   295.37695      503.27804      4738.2137      506.09333    
     47100   294.51135      506.43598      4738.2137      505.931      
     47200   293.2649       512.04621      4738.2137      505.90116    
     47300   294.84097      504.9401       4738.2137      505.85938    
     47400   294.29908      507.6364       4738.2137      505.92872    
     47500   295.49021      502.2847       4738.2137      505.99149    
     47600   295.63439      501.82271      4738.2137      506.01252    
     47700   293.15824      513.73947      4738.2137      506.16631    
     47800   295.33624      504.63142      4738.2137      506.47461    
     47900   296.17032      502.02871      4738.2137      506.7834     
     48000   292.07011      521.9871       4738.2137      507.16545    
     48100   295.17246      508.94058      4738.2137      507.3717     
     48200   293.93076      515.70103      4738.2137      507.80469    
     48300   293.97041      516.86502      4738.2137      508.2398     
     48400   294.34887      517.08891      4738.2137      508.66458    
     48500   295.79145      512.44021      4738.2137      509.24968    
     48600   294.41778      520.64889      4738.2137      509.81904    
     48700   297.3181       509.6967       4738.2137      510.39156    
     48800   296.8943       515.23505      4738.2137      511.41765    
     48900   299.04307      508.34482      4738.2137      512.09559    
     49000   296.64286      521.35764      4738.2137      512.83885    
     49100   297.94585      518.21099      4738.2137      513.55707    
     49200   297.48668      523.5244       4738.2137      514.42263    
     49300   297.09363      527.72317      4738.2137      515.17405    
     49400   299.16912      521.94131      4738.2137      516.14647    
     49500   301.42347      514.95421      4738.2137      516.98945    
     49600   302.23468      513.36598      4738.2137      517.63021    
     49700   300.988        521.51494      4738.2137      518.38461    
     49800   303.36846      513.63902      4738.2137      519.07081    
     49900   299.97851      531.37739      4738.2137      519.85641    
     50000   303.78296      516.31975      4738.2137      520.41168    
     50100   303.71958      518.60155      4738.2137      520.9483     
     50200   302.17777      527.59537      4738.2137      521.625      
     50300   304.42718      519.55034      4738.2137      522.12693    
     50400   303.31931      525.94145      4738.2137      522.51715    
     50500   303.43948      526.59957      4738.2137      522.88928    
     50600   306.53555      514.48343      4738.2137      523.29407    
     50700   303.90031      526.34953      4738.2137      523.3735     
     50800   306.27401      516.78678      4738.2137      523.71893    
     50900   306.3417       517.775        4738.2137      523.91096    
     51000   305.09964      523.41169      4738.2137      523.99878    
     51100   304.00204      528.83604      4738.2137      524.24816    
     51200   304.51095      527.1002       4738.2137      524.32953    
     51300   302.84742      535.90112      4738.2137      524.71686    
     51400   304.47161      528.58793      4738.2137      524.72734    
     51500   305.55413      523.70957      4738.2137      524.75161    
     51600   303.27148      533.45156      4738.2137      524.57229    
     51700   304.75712      526.50221      4738.2137      524.48134    
     51800   303.61083      530.9063       4738.2137      524.27572    
     51900   302.60416      534.8465       4738.2137      524.1467     
     52000   304.99822      523.15404      4738.2137      523.83248    
     52100   305.05663      521.62892      4738.2137      523.58304    
     52200   306.0625       517.00378      4738.2137      523.43867    
     52300   302.77056      529.73707      4738.2137      523.04832    
     52400   305.48791      517.29645      4738.2137      522.7858     
     52500   306.1949       512.96018      4738.2137      522.4285     
     52600   303.55046      523.4707       4738.2137      522.10187    
     52700   302.28173      527.71622      4738.2137      521.77223    
     52800   303.17583      522.24783      4738.2137      521.223      
     52900   302.0919       525.49398      4738.2137      520.90492    
     53000   303.03727      520.3775       4738.2137      520.55293    
     53100   303.33828      517.46358      4738.2137      520.14432    
     53200   302.28357      520.82931      4738.2137      519.76396    
     53300   300.94559      525.26047      4738.2137      519.38824    
     53400   300.36976      526.74322      4738.2137      518.96079    
     53500   302.78167      513.98762      4738.2137      518.43351    
     53600   301.07472      519.67463      4738.2137      517.93119    
     53700   298.79188      528.35111      4738.2137      517.49712    
     53800   301.31142      515.53073      4738.2137      517.12958    
     53900   301.91513      511.80188      4738.2137      516.71691    
     54000   299.63501      520.2443       4738.2137      516.30485    
     54100   300.75598      513.89343      4738.2137      515.89643    
     54200   298.71901      521.54116      4738.2137      515.52855    
     54300   299.59846      517.09153      4738.2137      515.27933    
     54400   298.77767      519.34754      4738.2137      514.93233    
     54500   297.48089      523.70865      4738.2137      514.54363    
     54600   298.86168      516.3257       4738.2137      514.22157    
     54700   299.67995      512.13433      4738.2137      514.0426     
     54800   298.86487      514.90524      4738.2137      513.7631     
     54900   299.44429      511.81105      4738.2137      513.62087    
     55000   299.33439      511.03421      4738.2137      513.28941    
     55100   297.6476       518.12418      4738.2137      513.14224    
     55200   296.78084      521.18047      4738.2137      512.90221    
     55300   296.65038      521.28491      4738.2137      512.8117     
     55400   297.46482      517.08549      4738.2137      512.68294    
     55500   299.07932      509.96314      4738.2137      512.63995    
     55600   296.22853      522.53025      4738.2137      512.70814    
     55700   297.55717      516.51028      4738.2137      512.66928    
     55800   298.73969      511.24588      4738.2137      512.56132    
     55900   296.2721       522.29831      4738.2137      512.64155    
     56000   300.18162      504.55123      4738.2137      512.55969    
     56100   297.53906      516.79665      4738.2137      512.58393    
     56200   295.97045      523.73976      4738.2137      512.56858    
     56300   296.65993      520.53528      4738.2137      512.60073    
     56400   296.13568      523.17336      4738.2137      512.77339    
     56500   298.19847      513.98343      4738.2137      512.6909     
     56600   296.73804      521.15808      4738.2137      512.8932     
     56700   299.26711      510.27338      4738.2137      512.97894    
     56800   298.80953      512.47554      4738.2137      513.01842    
     56900   296.94001      521.04861      4738.2137      513.07633    
     57000   298.1464       516.32971      4738.2137      513.36132    
     57100   295.34908      528.75659      4738.2137      513.43467    
     57200   298.88123      513.80932      4738.2137      513.50507    
     57300   300.53077      507.13794      4738.2137      513.68687    
     57400   297.12442      522.48965      4738.2137      513.74338    
     57500   298.44469      517.20132      4738.2137      513.90821    
     57600   298.21584      518.91236      4738.2137      514.08478    
     57700   299.591        513.17049      4738.2137      514.1283     
     57800   299.17941      515.53973      4738.2137      514.32392    
     57900   298.37124      519.64006      4738.2137      514.47609    
     58000   299.83768      513.59472      4738.2137      514.61967    
     58100   298.16343      521.68808      4738.2137      514.78962    
     58200   301.66342      506.29145      4738.2137      514.88622    
     58300   299.19373      517.98337      4738.2137      515.05908    
     58400   298.55456      521.24856      4738.2137      515.24153    
     58500   300.37463      514.27089      4738.2137      515.50453    
     58600   301.06306      511.6486       4738.2137      515.70478    
     58700   300.11367      516.03141      4738.2137      515.65951    
     58800   301.27129      511.65225      4738.2137      515.84832    
     58900   296.10703      534.49764      4738.2137      515.9066     
     59000   297.73908      528.12745      4738.2137      516.1079     
     59100   299.37236      521.17649      4738.2137      516.13676    
     59200   300.02298      518.4044       4738.2137      516.23518    
     59300   299.81895      520.03966      4738.2137      516.36923    
     59400   299.0236       523.59198      4738.2137      516.44416    
     59500   300.79497      516.04753      4738.2137      516.51525    
     59600   299.61824      521.06516      4738.2137      516.51163    
     59700   301.3513       514.16997      4738.2137      516.71059    
     59800   300.64975      517.54128      4738.2137      516.77389    
     59900   300.13721      520.21498      4738.2137      516.90687    
     60000   298.99758      525.4006       4738.2137      516.869      
Loop time of 587.129 on 1 procs for 50000 steps with 4000 atoms

Performance: 36789.211 tau/day, 85.160 timesteps/s, 340.641 katom-step/s
100.0% CPU use with 1 MPI tasks x 1 OpenMP threads

MPI task timing breakdown:
Section |  min time  |  avg time  |  max time  |%varavg| %total
---------------------------------------------------------------
Pair    | 305.66     | 305.66     | 305.66     |   0.0 | 52.06
Neigh   | 255.78     | 255.78     | 255.78     |   0.0 | 43.56
Comm    | 10.315     | 10.315     | 10.315     |   0.0 |  1.76
Output  | 0.02099    | 0.02099    | 0.02099    |   0.0 |  0.00
Modify  | 12.225     | 12.225     | 12.225     |   0.0 |  2.08
Other   |            | 3.121      |            |       |  0.53

Nlocal:           4000 ave        4000 max        4000 min
Histogram: 1 0 0 0 0 0 0 0 0 0
Nghost:           5555 ave        5555 max        5555 min
Histogram: 1 0 0 0 0 0 0 0 0 0
Neighs:         153793 ave      153793 max      153793 min
Histogram: 1 0 0 0 0 0 0 0 0 0

Total # of neighbors = 153793
Ave neighs/atom = 38.44825
Neighbor list builds = 16703
Dangerous builds = 0

unfix integrate2
Total wall time: 0:11:43
