
     Program BANDS v.7.4 starts on 19Nov2025 at  2: 2:52 

     This program is part of the open-source Quantum ESPRESSO suite
     for quantum simulation of materials; please cite
         "P. Giannozzi et al., J. Phys.:Condens. Matter 21 395502 (2009);
         "P. Giannozzi et al., J. Phys.:Condens. Matter 29 465901 (2017);
         "P. Giannozzi et al., J. Chem. Phys. 152 154105 (2020);
          URL http://www.quantum-espresso.org", 
     in publications or presentations arising from this work. More details at
     http://www.quantum-espresso.org/quote

     Parallel version (MPI & OpenMP), running on       2 processor cores
     Number of MPI processes:                 1
     Threads/MPI process:                     2

     MPI processes distributed on     1 nodes
     27251 MiB available memory on the printing compute node when the environment starts


     Reading xml data from directory:

     ./tmp/GaAs.save/
     file Ga.pbe-dn-kjpaw_psl.1.0.0.UPF: wavefunction(s)  4S renormalized

     IMPORTANT: XC functional enforced from input :
     Exchange-correlation= PBE
                           (   1   4   3   4   0   0   0)
     Any further DFT definition will be discarded
     Please, verify this is what you really want


     G-vector sticks info
     --------------------
     sticks:   dense  smooth     PW     G-vecs:    dense   smooth      PW
     Sum         955     955    301                19603    19195    3479

     Using Slab Decomposition

     Reading collected, re-writing distributed wavefunctions
     high-symmetry point:  0.5000 0.5000 0.5000   x coordinate   0.0000
     high-symmetry point:  0.0000 0.0000 0.0000   x coordinate   0.8660
     high-symmetry point:  1.0000 0.0000 0.0000   x coordinate   1.8660
     high-symmetry point:  1.0500-0.3000 0.3000   x coordinate   2.2932
     high-symmetry point:  1.0000-1.0000 1.0000   x coordinate   3.2844

     Plottable bands (eV) written to file GaAs.band.gnu
     Bands written to file GaAs.band

 **************************************************************************

                    xk=(   0.50000,   0.50000,   0.50000  )

     point group C_3v (3m)  
     there are  3 classes
     the character table:

       E     2C3   3s_v 
A_1    1.00  1.00  1.00
A_2    1.00  1.00 -1.00
E      2.00 -1.00  0.00

     the symmetry operations in each class and the name of the first element:

     E        1
                                                                 
     2C3      2    3
                                                                 
     3s_v     4    5    6
                                                                 

     Band symmetry, C_3v (3m)   point group:

     e(  1 -  1) =     -8.15083  eV     1   --> A_1  L_1       
     e(  2 -  3) =     -8.05270  eV     2   --> E    L_3       
     e(  4 -  5) =     -7.98949  eV     2   --> E    L_3       
     e(  6 -  6) =     -4.25357  eV     1   --> A_1  L_1       
     e(  7 -  7) =      0.07157  eV     1   --> A_1  L_1       
     e(  8 -  9) =      5.56944  eV     2   --> E    L_3       
     e( 10 - 10) =      7.70698  eV     1   --> A_1  L_1       
     e( 11 - 12) =     11.34507  eV     2   --> E    L_3       
     e( 13 - 13) =     14.52589  eV     1   --> A_1  L_1       
     e( 14 - 14) =     17.14971  eV     1   --> A_1  L_1       
     e( 15 - 16) =     18.69890  eV     2   --> E    L_3       

 **************************************************************************

 **************************************************************************

                    xk=(   0.47500,   0.47500,   0.47500  )

     Band symmetry, C_3v (3m)   point group:

     e(  1 -  1) =     -8.15040  eV     1   --> A_1  L_1       
     e(  2 -  3) =     -8.05278  eV     2   --> E    L_3       
     e(  4 -  5) =     -7.98956  eV     2   --> E    L_3       
     e(  6 -  6) =     -4.27204  eV     1   --> A_1  L_1       
     e(  7 -  7) =      0.10472  eV     1   --> A_1  L_1       
     e(  8 -  9) =      5.57439  eV     2   --> E    L_3       
     e( 10 - 10) =      7.71216  eV     1   --> A_1  L_1       
     e( 11 - 12) =     11.34798  eV     2   --> E    L_3       
     e( 13 - 13) =     14.52787  eV     1   --> A_1  L_1       
     e( 14 - 14) =     17.03180  eV     1   --> A_1  L_1       
     e( 15 - 16) =     18.52143  eV     2   --> E    L_3       

 **************************************************************************

 **************************************************************************

                    xk=(   0.45000,   0.45000,   0.45000  )

     Band symmetry, C_3v (3m)   point group:

     e(  1 -  1) =     -8.14916  eV     1   --> A_1  L_1       
     e(  2 -  3) =     -8.05300  eV     2   --> E    L_3       
     e(  4 -  5) =     -7.98978  eV     2   --> E    L_3       
     e(  6 -  6) =     -4.32576  eV     1   --> A_1  L_1       
     e(  7 -  7) =      0.20228  eV     1   --> A_1  L_1       
     e(  8 -  9) =      5.58923  eV     2   --> E    L_3       
     e( 10 - 10) =      7.72740  eV     1   --> A_1  L_1       
     e( 11 - 12) =     11.35627  eV     2   --> E    L_3       
     e( 13 - 13) =     14.53079  eV     1   --> A_1  L_1       
     e( 14 - 14) =     16.74293  eV     1   --> A_1  L_1       
     e( 15 - 16) =     18.15519  eV     2   --> E    L_3       

 **************************************************************************

 **************************************************************************

                    xk=(   0.42500,   0.42500,   0.42500  )

     Band symmetry, C_3v (3m)   point group:

     e(  1 -  1) =     -8.14712  eV     1   --> A_1  L_1       
     e(  2 -  3) =     -8.05339  eV     2   --> E    L_3       
     e(  4 -  5) =     -7.99012  eV     2   --> E    L_3       
     e(  6 -  6) =     -4.40976  eV     1   --> A_1  L_1       
     e(  7 -  7) =      0.35922  eV     1   --> A_1  L_1       
     e(  8 -  9) =      5.61383  eV     2   --> E    L_3       
     e( 10 - 10) =      7.75262  eV     1   --> A_1  L_1       
     e( 11 - 12) =     11.36884  eV     2   --> E    L_3       
     e( 13 - 13) =     14.52565  eV     1   --> A_1  L_1       
     e( 14 - 14) =     16.38582  eV     1   --> A_1  L_1       
     e( 15 - 16) =     17.75003  eV     2   --> E    L_3       

 **************************************************************************

 **************************************************************************

                    xk=(   0.40000,   0.40000,   0.40000  )

     Band symmetry, C_3v (3m)   point group:

     e(  1 -  1) =     -8.14429  eV     1   --> A_1  L_1       
     e(  2 -  3) =     -8.05394  eV     2   --> E    L_3       
     e(  4 -  5) =     -7.99057  eV     2   --> E    L_3       
     e(  6 -  6) =     -4.51737  eV     1   --> A_1  L_1       
     e(  7 -  7) =      0.56871  eV     1   --> A_1  L_1       
     e(  8 -  9) =      5.64803  eV     2   --> E    L_3       
     e( 10 - 10) =      7.78770  eV     1   --> A_1  L_1       
     e( 11 - 12) =     11.38353  eV     2   --> E    L_3       
     e( 13 - 13) =     14.49175  eV     1   --> A_1  L_1       
     e( 14 - 14) =     16.03447  eV     1   --> A_1  L_1       
     e( 15 - 16) =     17.35269  eV     2   --> E    L_3       

 **************************************************************************

 **************************************************************************

                    xk=(   0.37500,   0.37500,   0.37500  )

     Band symmetry, C_3v (3m)   point group:

     e(  1 -  1) =     -8.14073  eV     1   --> A_1  L_1       
     e(  2 -  3) =     -8.05465  eV     2   --> E    L_3       
     e(  4 -  5) =     -7.99108  eV     2   --> E    L_3       
     e(  6 -  6) =     -4.64162  eV     1   --> A_1  L_1       
     e(  7 -  7) =      0.82350  eV     1   --> A_1  L_1       
     e(  8 -  9) =      5.69157  eV     2   --> E    L_3       
     e( 10 - 10) =      7.83222  eV     1   --> A_1  L_1       
     e( 11 - 12) =     11.39760  eV     2   --> E    L_3       
     e( 13 - 13) =     14.39033  eV     1   --> A_1  L_1       
     e( 14 - 14) =     15.75176  eV     1   --> A_1  L_1       
     e( 15 - 16) =     16.98088  eV     2   --> E    L_3       

 **************************************************************************

 **************************************************************************

                    xk=(   0.35000,   0.35000,   0.35000  )

     Band symmetry, C_3v (3m)   point group:

     e(  1 -  1) =     -8.13651  eV     1   --> A_1  L_1       
     e(  2 -  3) =     -8.05555  eV     2   --> E    L_3       
     e(  4 -  5) =     -7.99162  eV     2   --> E    L_3       
     e(  6 -  6) =     -4.77612  eV     1   --> A_1  L_1       
     e(  7 -  7) =      1.11679  eV     1   --> A_1  L_1       
     e(  8 -  9) =      5.74398  eV     2   --> E    L_3       
     e( 10 - 10) =      7.88551  eV     1   --> A_1  L_1       
     e( 11 - 12) =     11.40709  eV     2   --> E    L_3       
     e( 13 - 13) =     14.18084  eV     1   --> A_1  L_1       
     e( 14 - 14) =     15.58907  eV     1   --> A_1  L_1       
     e( 15 - 16) =     16.64417  eV     2   --> E    L_3       

 **************************************************************************

 **************************************************************************

                    xk=(   0.32500,   0.32500,   0.32500  )

     Band symmetry, C_3v (3m)   point group:

     e(  1 -  1) =     -8.13170  eV     1   --> A_1  L_1       
     e(  2 -  3) =     -8.05661  eV     2   --> E    L_3       
     e(  4 -  5) =     -7.99216  eV     2   --> E    L_3       
     e(  6 -  6) =     -4.91543  eV     1   --> A_1  L_1       
     e(  7 -  7) =      1.44269  eV     1   --> A_1  L_1       
     e(  8 -  9) =      5.80501  eV     2   --> E    L_3       
     e( 10 - 10) =      7.94679  eV     1   --> A_1  L_1       
     e( 11 - 12) =     11.40790  eV     2   --> E    L_3       
     e( 13 - 13) =     13.86763  eV     1   --> A_1  L_1       
     e( 14 - 14) =     15.54698  eV     1   --> A_1  L_1       
     e( 15 - 16) =     16.35057  eV     2   --> E    L_3       

 **************************************************************************

 **************************************************************************

                    xk=(   0.30000,   0.30000,   0.30000  )

     Band symmetry, C_3v (3m)   point group:

     e(  1 -  1) =     -8.12638  eV     1   --> A_1  L_1       
     e(  2 -  3) =     -8.05784  eV     2   --> E    L_3       
     e(  4 -  5) =     -7.99267  eV     2   --> E    L_3       
     e(  6 -  6) =     -5.05516  eV     1   --> A_1  L_1       
     e(  7 -  7) =      1.79624  eV     1   --> A_1  L_1       
     e(  8 -  9) =      5.87392  eV     2   --> E    L_3       
     e( 10 - 10) =      8.01470  eV     1   --> A_1  L_1       
     e( 11 - 12) =     11.39501  eV     2   --> E    L_3       
     e( 13 - 13) =     13.49196  eV     1   --> A_1  L_1       
     e( 14 - 14) =     15.58490  eV     1   --> A_1  L_1       
     e( 15 - 16) =     16.10686  eV     2   --> E    L_3       

 **************************************************************************

 **************************************************************************

                    xk=(   0.27500,   0.27500,   0.27500  )

     Band symmetry, C_3v (3m)   point group:

     e(  1 -  1) =     -8.12065  eV     1   --> A_1  L_1       
     e(  2 -  3) =     -8.05921  eV     2   --> E    L_3       
     e(  4 -  5) =     -7.99313  eV     2   --> E    L_3       
     e(  6 -  6) =     -5.19186  eV     1   --> A_1  L_1       
     e(  7 -  7) =      2.17329  eV     1   --> A_1  L_1       
     e(  8 -  9) =      5.94984  eV     2   --> E    L_3       
     e( 10 - 10) =      8.08735  eV     1   --> A_1  L_1       
     e( 11 - 12) =     11.36381  eV     2   --> E    L_3       
     e( 13 - 13) =     13.08897  eV     1   --> A_1  L_1       
     e( 14 - 14) =     15.66520  eV     1   --> A_1  L_1       
     e( 15 - 16) =     15.91871  eV     2   --> E    L_3       

 **************************************************************************

 **************************************************************************

                    xk=(   0.25000,   0.25000,   0.25000  )

     Band symmetry, C_3v (3m)   point group:

     e(  1 -  1) =     -8.11464  eV     1   --> A_1  L_1       
     e(  2 -  3) =     -8.06070  eV     2   --> E    L_3       
     e(  4 -  5) =     -7.99350  eV     2   --> E    L_3       
     e(  6 -  6) =     -5.32284  eV     1   --> A_1  L_1       
     e(  7 -  7) =      2.57015  eV     1   --> A_1  L_1       
     e(  8 -  9) =      6.03179  eV     2   --> E    L_3       
     e( 10 - 10) =      8.16178  eV     1   --> A_1  L_1       
     e( 11 - 12) =     11.31125  eV     2   --> E    L_3       
     e( 13 - 13) =     12.67863  eV     1   --> A_1  L_1       
     e( 14 - 14) =     15.76008  eV     1   --> A_1  L_1       
     e( 15 - 16) =     15.79079  eV     2   --> E    L_3       

 **************************************************************************

 **************************************************************************

                    xk=(   0.22500,   0.22500,   0.22500  )

     Band symmetry, C_3v (3m)   point group:

     e(  1 -  1) =     -8.10848  eV     1   --> A_1  L_1       
     e(  2 -  3) =     -8.06227  eV     2   --> E    L_3       
     e(  4 -  5) =     -7.99380  eV     2   --> E    L_3       
     e(  6 -  6) =     -5.44598  eV     1   --> A_1  L_1       
     e(  7 -  7) =      2.98377  eV     1   --> A_1  L_1       
     e(  8 -  9) =      6.11852  eV     2   --> E    L_3       
     e( 10 - 10) =      8.23361  eV     1   --> A_1  L_1       
     e( 11 - 12) =     11.23630  eV     2   --> E    L_3       
     e( 13 - 13) =     12.27319  eV     1   --> A_1  L_1       
     e( 14 - 15) =     15.72518  eV     2   --> E    L_3       
     e( 16 - 16) =     15.84132  eV     1   --> A_1  L_1       

 **************************************************************************

 **************************************************************************

                    xk=(   0.20000,   0.20000,   0.20000  )

     Band symmetry, C_3v (3m)   point group:

     e(  1 -  1) =     -8.10232  eV     1   --> A_1  L_1       
     e(  2 -  3) =     -8.06388  eV     2   --> E    L_3       
     e(  4 -  5) =     -7.99401  eV     2   --> E    L_3       
     e(  6 -  6) =     -5.55962  eV     1   --> A_1  L_1       
     e(  7 -  7) =      3.41115  eV     1   --> A_1  L_1       
     e(  8 -  9) =      6.20835  eV     2   --> E    L_3       
     e( 10 - 10) =      8.29621  eV     1   --> A_1  L_1       
     e( 11 - 12) =     11.14105  eV     2   --> E    L_3       
     e( 13 - 13) =     11.88205  eV     1   --> A_1  L_1       
     e( 14 - 15) =     15.72101  eV     2   --> E    L_3       
     e( 16 - 16) =     15.86859  eV     1   --> A_1  L_1       

 **************************************************************************

 **************************************************************************

                    xk=(   0.17500,   0.17500,   0.17500  )

     Band symmetry, C_3v (3m)   point group:

     e(  1 -  1) =     -8.09629  eV     1   --> A_1  L_1       
     e(  2 -  3) =     -8.06546  eV     2   --> E    L_3       
     e(  4 -  5) =     -7.99415  eV     2   --> E    L_3       
     e(  6 -  6) =     -5.66245  eV     1   --> A_1  L_1       
     e(  7 -  7) =      3.84953  eV     1   --> A_1  L_1       
     e(  8 -  9) =      6.29940  eV     2   --> E    L_3       
     e( 10 - 10) =      8.33958  eV     1   --> A_1  L_1       
     e( 11 - 12) =     11.03026  eV     2   --> E    L_3       
     e( 13 - 13) =     11.51544  eV     1   --> A_1  L_1       
     e( 14 - 15) =     15.77543  eV     2   --> E    L_3       
     e( 16 - 16) =     15.79202  eV     1   --> A_1  L_1       

 **************************************************************************

 **************************************************************************

                    xk=(   0.15000,   0.15000,   0.15000  )

     Band symmetry, C_3v (3m)   point group:

     e(  1 -  1) =     -8.09058  eV     1   --> A_1  L_1       
     e(  2 -  3) =     -8.06698  eV     2   --> E    L_3       
     e(  4 -  5) =     -7.99422  eV     2   --> E    L_3       
     e(  6 -  6) =     -5.75344  eV     1   --> A_1  L_1       
     e(  7 -  7) =      4.29583  eV     1   --> A_1  L_1       
     e(  8 -  9) =      6.38891  eV     2   --> E    L_3       
     e( 10 - 10) =      8.34928  eV     1   --> A_1  L_1       
     e( 11 - 12) =     10.91057  eV     2   --> E    L_3       
     e( 13 - 13) =     11.18591  eV     1   --> A_1  L_1       
     e( 14 - 14) =     15.59411  eV     1   --> A_1  L_1       
     e( 15 - 16) =     15.88142  eV     2   --> E    L_3       

 **************************************************************************

 **************************************************************************

                    xk=(   0.12500,   0.12500,   0.12500  )

     Band symmetry, C_3v (3m)   point group:

     e(  1 -  1) =     -8.08534  eV     1   --> A_1  L_1       
     e(  2 -  3) =     -8.06837  eV     2   --> E    L_3       
     e(  4 -  5) =     -7.99425  eV     2   --> E    L_3       
     e(  6 -  6) =     -5.83174  eV     1   --> A_1  L_1       
     e(  7 -  7) =      4.74693  eV     1   --> A_1  L_1       
     e(  8 -  9) =      6.47414  eV     2   --> E    L_3       
     e( 10 - 10) =      8.30681  eV     1   --> A_1  L_1       
     e( 11 - 12) =     10.79002  eV     2   --> E    L_3       
     e( 13 - 13) =     10.90903  eV     1   --> A_1  L_1       
     e( 14 - 14) =     15.31927  eV     1   --> A_1  L_1       
     e( 15 - 16) =     16.03193  eV     2   --> E    L_3       

 **************************************************************************

 **************************************************************************

                    xk=(   0.10000,   0.10000,   0.10000  )

     Band symmetry, C_3v (3m)   point group:

     e(  1 -  1) =     -8.08077  eV     1   --> A_1  L_1       
     e(  2 -  3) =     -8.06959  eV     2   --> E    L_3       
     e(  4 -  5) =     -7.99424  eV     2   --> E    L_3       
     e(  6 -  6) =     -5.89668  eV     1   --> A_1  L_1       
     e(  7 -  7) =      5.19878  eV     1   --> A_1  L_1       
     e(  8 -  9) =      6.55157  eV     2   --> E    L_3       
     e( 10 - 10) =      8.19387  eV     1   --> A_1  L_1       
     e( 11 - 12) =     10.67680  eV     2   --> E    L_3       
     e( 13 - 13) =     10.69899  eV     1   --> A_1  L_1       
     e( 14 - 14) =     15.02856  eV     1   --> A_1  L_1       
     e( 15 - 16) =     16.21771  eV     2   --> E    L_3       

 **************************************************************************

 **************************************************************************

                    xk=(   0.07500,   0.07500,   0.07500  )

     Band symmetry, C_3v (3m)   point group:

     e(  1 -  1) =     -8.07702  eV     1   --> A_1  L_1       
     e(  2 -  3) =     -8.07059  eV     2   --> E    L_3       
     e(  4 -  5) =     -7.99423  eV     2   --> E    L_3       
     e(  6 -  6) =     -5.94774  eV     1   --> A_1  L_1       
     e(  7 -  7) =      5.64607  eV     1   --> A_1  L_1       
     e(  8 -  9) =      6.61722  eV     2   --> E    L_3       
     e( 10 - 10) =      8.00156  eV     1   --> A_1  L_1       
     e( 11 - 11) =     10.56034  eV     1   --> A_1  L_1       
     e( 12 - 13) =     10.57875  eV     2   --> E    L_3       
     e( 14 - 14) =     14.76580  eV     1   --> A_1  L_1       
     e( 15 - 16) =     16.42560  eV     2   --> E    L_3       

 **************************************************************************

 **************************************************************************

                    xk=(   0.05000,   0.05000,   0.05000  )

     Band symmetry, C_3v (3m)   point group:

     e(  1 -  1) =     -8.07424  eV     1   --> A_1  L_1       
     e(  2 -  3) =     -8.07133  eV     2   --> E    L_3       
     e(  4 -  5) =     -7.99420  eV     2   --> E    L_3       
     e(  6 -  6) =     -5.98449  eV     1   --> A_1  L_1       
     e(  7 -  7) =      6.08030  eV     1   --> A_1  L_1       
     e(  8 -  9) =      6.66775  eV     2   --> E    L_3       
     e( 10 - 10) =      7.73817  eV     1   --> A_1  L_1       
     e( 11 - 11) =     10.48307  eV     1   --> A_1  L_1       
     e( 12 - 13) =     10.50297  eV     2   --> E    L_3       
     e( 14 - 14) =     14.55916  eV     1   --> A_1  L_1       
     e( 15 - 16) =     16.63718  eV     2   --> E    L_3       

 **************************************************************************

 **************************************************************************

                    xk=(   0.02500,   0.02500,   0.02500  )

     Band symmetry, C_3v (3m)   point group:

     e(  1 -  1) =     -8.07252  eV     1   --> A_1  L_1       
     e(  2 -  3) =     -8.07178  eV     2   --> E    L_3       
     e(  4 -  5) =     -7.99418  eV     2   --> E    L_3       
     e(  6 -  6) =     -6.00666  eV     1   --> A_1  L_1       
     e(  7 -  7) =      6.47949  eV     1   --> A_1  L_1       
     e(  8 -  9) =      6.69968  eV     2   --> E    L_3       
     e( 10 - 10) =      7.43512  eV     1   --> A_1  L_1       
     e( 11 - 11) =     10.44813  eV     1   --> A_1  L_1       
     e( 12 - 13) =     10.45505  eV     2   --> E    L_3       
     e( 14 - 14) =     14.42742  eV     1   --> A_1  L_1       
     e( 15 - 16) =     16.81275  eV     2   --> E    L_3       

 **************************************************************************

 **************************************************************************

                    xk=(   0.00000,   0.00000,   0.00000  )

     point group T_d (-43m) 
     there are  5 classes
     the character table:

       E     8C3   3C2   6S4   6s_d 
A_1    1.00  1.00  1.00  1.00  1.00
A_2    1.00  1.00  1.00 -1.00 -1.00
E      2.00 -1.00  2.00  0.00  0.00
T_1    3.00  0.00 -1.00  1.00 -1.00
T_2    3.00  0.00 -1.00 -1.00  1.00

     the symmetry operations in each class and the name of the first element:

     E        1
                                                                 
     8C3      5    7    8    6   12    9   10   11
                                                                 
     3C2      2    3    4
                                                                 
     6S4     15   16   20   19   23   24
                                                                 
     6s_d    13   14   17   18   21   22
                                                                 

     Band symmetry, T_d (-43m)  point group:

     e(  1 -  3) =     -8.07193  eV     3   --> T_2  G_15 P_4  
     e(  4 -  5) =     -7.99418  eV     2   --> E    G_12 P_3  
     e(  6 -  6) =     -6.01407  eV     1   --> A_1  G_1  P_1  
     e(  7 -  9) =      6.71060  eV     3   --> T_2  G_15 P_4  
     e( 10 - 10) =      7.23488  eV     1   --> A_1  G_1  P_1  
     e( 11 - 13) =     10.43865  eV     3   --> T_2  G_15 P_4  
     e( 14 - 14) =     14.38217  eV     1   --> A_1  G_1  P_1  
     e( 15 - 16) =     16.88593  eV     2   --> E    G_12 P_3  

 **************************************************************************

 **************************************************************************

                    xk=(   0.03333,   0.00000,   0.00000  )

     point group C_2v (mm2) 
     there are  4 classes
     the character table:

       E     C2    s_v   s_v' 
A_1    1.00  1.00  1.00  1.00
A_2    1.00  1.00 -1.00 -1.00
B_1    1.00 -1.00  1.00 -1.00
B_2    1.00 -1.00 -1.00  1.00

     the symmetry operations in each class and the name of the first element:

     E        1
                                                                 
     C2       2
                                                                 
     s_v      3
                                                                 
     s_v'     4
                                                                 

     Band symmetry, C_2v (mm2)  point group:

     e(  1 -  1) =     -8.07236  eV     1   --> A_1  D_1  S_1  
     e(  2 -  3) =     -8.07180  eV     2   --> B_1  D_3  S_3  
     e(  2 -  3) =     -8.07180  eV     2   --> B_2  D_4  S_4  
     e(  4 -  5) =     -7.99423  eV     2   --> A_1  D_1  S_1  
     e(  4 -  5) =     -7.99423  eV     2   --> A_2  D_2  S_2  
     e(  6 -  6) =     -6.00968  eV     1   --> A_1  D_1  S_1  
     e(  7 -  7) =      6.57292  eV     1   --> A_1  D_1  S_1  
     e(  8 -  9) =      6.69544  eV     2   --> B_1  D_3  S_3  
     e(  8 -  9) =      6.69544  eV     2   --> B_2  D_4  S_4  
     e( 10 - 10) =      7.37191  eV     1   --> A_1  D_1  S_1  
     e( 11 - 11) =     10.42207  eV     1   --> A_1  D_1  S_1  
     e( 12 - 13) =     10.45934  eV     2   --> B_1  D_3  S_3  
     e( 12 - 13) =     10.45934  eV     2   --> B_2  D_4  S_4  
     e( 14 - 14) =     14.40905  eV     1   --> A_1  D_1  S_1  
     e( 15 - 15) =     16.79367  eV     1   --> A_1  D_1  S_1  
     e( 16 - 16) =     16.89058  eV     1   --> A_2  D_2  S_2  

 **************************************************************************

 **************************************************************************

                    xk=(   0.06667,   0.00000,   0.00000  )

     Band symmetry, C_2v (mm2)  point group:

     e(  1 -  1) =     -8.07361  eV     1   --> A_1  D_1  S_1  
     e(  2 -  3) =     -8.07142  eV     2   --> B_1  D_3  S_3  
     e(  2 -  3) =     -8.07142  eV     2   --> B_2  D_4  S_4  
     e(  4 -  4) =     -7.99437  eV     1   --> A_1  D_1  S_1  
     e(  5 -  5) =     -7.99402  eV     1   --> A_2  D_2  S_2  
     e(  6 -  6) =     -5.99652  eV     1   --> A_1  D_1  S_1  
     e(  7 -  7) =      6.31474  eV     1   --> A_1  D_1  S_1  
     e(  8 -  9) =      6.65104  eV     2   --> B_1  D_3  S_3  
     e(  8 -  9) =      6.65104  eV     2   --> B_2  D_4  S_4  
     e( 10 - 10) =      7.62782  eV     1   --> A_1  D_1  S_1  
     e( 11 - 11) =     10.37385  eV     1   --> A_1  D_1  S_1  
     e( 12 - 13) =     10.52033  eV     2   --> B_1  D_3  S_3  
     e( 12 - 13) =     10.52033  eV     2   --> B_2  D_4  S_4  
     e( 14 - 14) =     14.48810  eV     1   --> A_1  D_1  S_1  
     e( 15 - 15) =     16.56216  eV     1   --> A_1  D_1  S_1  
     e( 16 - 16) =     16.90451  eV     1   --> A_2  D_2  S_2  

 **************************************************************************

 **************************************************************************

                    xk=(   0.10000,   0.00000,   0.00000  )

     Band symmetry, C_2v (mm2)  point group:

     e(  1 -  1) =     -8.07566  eV     1   --> A_1  D_1  S_1  
     e(  2 -  3) =     -8.07078  eV     2   --> B_1  D_3  S_3  
     e(  2 -  3) =     -8.07078  eV     2   --> B_2  D_4  S_4  
     e(  4 -  4) =     -7.99461  eV     1   --> A_1  D_1  S_1  
     e(  5 -  5) =     -7.99383  eV     1   --> A_2  D_2  S_2  
     e(  6 -  6) =     -5.97464  eV     1   --> A_1  D_1  S_1  
     e(  7 -  7) =      6.03116  eV     1   --> A_1  D_1  S_1  
     e(  8 -  9) =      6.58041  eV     2   --> B_1  D_3  S_3  
     e(  8 -  9) =      6.58041  eV     2   --> B_2  D_4  S_4  
     e( 10 - 10) =      7.90661  eV     1   --> A_1  D_1  S_1  
     e( 11 - 11) =     10.29818  eV     1   --> A_1  D_1  S_1  
     e( 12 - 13) =     10.61865  eV     2   --> B_1  D_3  S_3  
     e( 12 - 13) =     10.61865  eV     2   --> B_2  D_4  S_4  
     e( 14 - 14) =     14.61482  eV     1   --> A_1  D_1  S_1  
     e( 15 - 15) =     16.26223  eV     1   --> A_1  D_1  S_1  
     e( 16 - 16) =     16.92773  eV     1   --> A_2  D_2  S_2  

 **************************************************************************

 **************************************************************************

                    xk=(   0.13333,   0.00000,   0.00000  )

     Band symmetry, C_2v (mm2)  point group:

     e(  1 -  1) =     -8.07845  eV     1   --> A_1  D_1  S_1  
     e(  2 -  3) =     -8.06988  eV     2   --> B_1  D_3  S_3  
     e(  2 -  3) =     -8.06988  eV     2   --> B_2  D_4  S_4  
     e(  4 -  4) =     -7.99496  eV     1   --> A_1  D_1  S_1  
     e(  5 -  5) =     -7.99356  eV     1   --> A_2  D_2  S_2  
     e(  6 -  6) =     -5.94412  eV     1   --> A_1  D_1  S_1  
     e(  7 -  7) =      5.74070  eV     1   --> A_1  D_1  S_1  
     e(  8 -  9) =      6.48777  eV     2   --> B_1  D_3  S_3  
     e(  8 -  9) =      6.48777  eV     2   --> B_2  D_4  S_4  
     e( 10 - 10) =      8.18814  eV     1   --> A_1  D_1  S_1  
     e( 11 - 11) =     10.20100  eV     1   --> A_1  D_1  S_1  
     e( 12 - 13) =     10.75015  eV     2   --> B_1  D_3  S_3  
     e( 12 - 13) =     10.75015  eV     2   --> B_2  D_4  S_4  
     e( 14 - 14) =     14.78219  eV     1   --> A_1  D_1  S_1  
     e( 15 - 15) =     15.93684  eV     1   --> A_1  D_1  S_1  
     e( 16 - 16) =     16.96048  eV     1   --> A_2  D_2  S_2  

 **************************************************************************

 **************************************************************************

                    xk=(   0.16667,   0.00000,   0.00000  )

     Band symmetry, C_2v (mm2)  point group:

     e(  1 -  1) =     -8.08193  eV     1   --> A_1  D_1  S_1  
     e(  2 -  3) =     -8.06875  eV     2   --> B_1  D_3  S_3  
     e(  2 -  3) =     -8.06875  eV     2   --> B_2  D_4  S_4  
     e(  4 -  4) =     -7.99542  eV     1   --> A_1  D_1  S_1  
     e(  5 -  5) =     -7.99322  eV     1   --> A_2  D_2  S_2  
     e(  6 -  6) =     -5.90507  eV     1   --> A_1  D_1  S_1  
     e(  7 -  7) =      5.44824  eV     1   --> A_1  D_1  S_1  
     e(  8 -  9) =      6.37739  eV     2   --> B_1  D_3  S_3  
     e(  8 -  9) =      6.37739  eV     2   --> B_2  D_4  S_4  
     e( 10 - 10) =      8.46427  eV     1   --> A_1  D_1  S_1  
     e( 11 - 11) =     10.08913  eV     1   --> A_1  D_1  S_1  
     e( 12 - 13) =     10.91015  eV     2   --> B_1  D_3  S_3  
     e( 12 - 13) =     10.91015  eV     2   --> B_2  D_4  S_4  
     e( 14 - 14) =     14.97733  eV     1   --> A_1  D_1  S_1  
     e( 15 - 15) =     15.61575  eV     1   --> A_1  D_1  S_1  
     e( 16 - 16) =     17.00247  eV     1   --> A_2  D_2  S_2  

 **************************************************************************

 **************************************************************************

                    xk=(   0.20000,   0.00000,   0.00000  )

     Band symmetry, C_2v (mm2)  point group:

     e(  1 -  1) =     -8.08599  eV     1   --> A_1  D_1  S_1  
     e(  2 -  3) =     -8.06739  eV     2   --> B_1  D_3  S_3  
     e(  2 -  3) =     -8.06739  eV     2   --> B_2  D_4  S_4  
     e(  4 -  4) =     -7.99600  eV     1   --> A_1  D_1  S_1  
     e(  5 -  5) =     -7.99281  eV     1   --> A_2  D_2  S_2  
     e(  6 -  6) =     -5.85763  eV     1   --> A_1  D_1  S_1  
     e(  7 -  7) =      5.15584  eV     1   --> A_1  D_1  S_1  
     e(  8 -  9) =      6.25379  eV     2   --> B_1  D_3  S_3  
     e(  8 -  9) =      6.25379  eV     2   --> B_2  D_4  S_4  
     e( 10 - 10) =      8.72803  eV     1   --> A_1  D_1  S_1  
     e( 11 - 11) =      9.97035  eV     1   --> A_1  D_1  S_1  
     e( 12 - 13) =     11.09414  eV     2   --> B_1  D_3  S_3  
     e( 12 - 13) =     11.09414  eV     2   --> B_2  D_4  S_4  
     e( 14 - 14) =     15.11530  eV     1   --> A_1  D_1  S_1  
     e( 15 - 15) =     15.39211  eV     1   --> A_1  D_1  S_1  
     e( 16 - 16) =     17.05411  eV     1   --> A_2  D_2  S_2  

 **************************************************************************

 **************************************************************************

                    xk=(   0.23333,   0.00000,   0.00000  )

     Band symmetry, C_2v (mm2)  point group:

     e(  1 -  1) =     -8.09057  eV     1   --> A_1  D_1  S_1  
     e(  2 -  3) =     -8.06582  eV     2   --> B_1  D_3  S_3  
     e(  2 -  3) =     -8.06582  eV     2   --> B_2  D_4  S_4  
     e(  4 -  4) =     -7.99669  eV     1   --> A_1  D_1  S_1  
     e(  5 -  5) =     -7.99234  eV     1   --> A_2  D_2  S_2  
     e(  6 -  6) =     -5.80195  eV     1   --> A_1  D_1  S_1  
     e(  7 -  7) =      4.86450  eV     1   --> A_1  D_1  S_1  
     e(  8 -  9) =      6.12077  eV     2   --> B_1  D_3  S_3  
     e(  8 -  9) =      6.12077  eV     2   --> B_2  D_4  S_4  
     e( 10 - 10) =      8.96866  eV     1   --> A_1  D_1  S_1  
     e( 11 - 11) =      9.85537  eV     1   --> A_1  D_1  S_1  
     e( 12 - 13) =     11.29804  eV     2   --> B_1  D_3  S_3  
     e( 12 - 13) =     11.29804  eV     2   --> B_2  D_4  S_4  
     e( 14 - 14) =     14.91596  eV     1   --> A_1  D_1  S_1  
     e( 15 - 15) =     15.55054  eV     1   --> A_1  D_1  S_1  
     e( 16 - 16) =     17.11437  eV     1   --> A_2  D_2  S_2  

 **************************************************************************

 **************************************************************************

                    xk=(   0.26667,   0.00000,   0.00000  )

     Band symmetry, C_2v (mm2)  point group:

     e(  1 -  1) =     -8.09556  eV     1   --> A_1  D_1  S_1  
     e(  2 -  3) =     -8.06406  eV     2   --> B_1  D_3  S_3  
     e(  2 -  3) =     -8.06406  eV     2   --> B_2  D_4  S_4  
     e(  4 -  4) =     -7.99750  eV     1   --> A_1  D_1  S_1  
     e(  5 -  5) =     -7.99181  eV     1   --> A_2  D_2  S_2  
     e(  6 -  6) =     -5.73822  eV     1   --> A_1  D_1  S_1  
     e(  7 -  7) =      4.57485  eV     1   --> A_1  D_1  S_1  
     e(  8 -  9) =      5.98179  eV     2   --> B_1  D_3  S_3  
     e(  8 -  9) =      5.98179  eV     2   --> B_2  D_4  S_4  
     e( 10 - 10) =      9.16272  eV     1   --> A_1  D_1  S_1  
     e( 11 - 11) =      9.76601  eV     1   --> A_1  D_1  S_1  
     e( 12 - 13) =     11.51845  eV     2   --> B_1  D_3  S_3  
     e( 12 - 13) =     11.51845  eV     2   --> B_2  D_4  S_4  
     e( 14 - 14) =     14.65021  eV     1   --> A_1  D_1  S_1  
     e( 15 - 15) =     15.82620  eV     1   --> A_1  D_1  S_1  
     e( 16 - 16) =     17.18418  eV     1   --> A_2  D_2  S_2  

 **************************************************************************

 **************************************************************************

                    xk=(   0.30000,   0.00000,   0.00000  )

     Band symmetry, C_2v (mm2)  point group:

     e(  1 -  1) =     -8.10088  eV     1   --> A_1  D_1  S_1  
     e(  2 -  3) =     -8.06211  eV     2   --> B_1  D_3  S_3  
     e(  2 -  3) =     -8.06211  eV     2   --> B_2  D_4  S_4  
     e(  4 -  4) =     -7.99841  eV     1   --> A_1  D_1  S_1  
     e(  5 -  5) =     -7.99123  eV     1   --> A_2  D_2  S_2  
     e(  6 -  6) =     -5.66665  eV     1   --> A_1  D_1  S_1  
     e(  7 -  7) =      4.28716  eV     1   --> A_1  D_1  S_1  
     e(  8 -  9) =      5.83970  eV     2   --> B_1  D_3  S_3  
     e(  8 -  9) =      5.83970  eV     2   --> B_2  D_4  S_4  
     e( 10 - 10) =      9.25764  eV     1   --> A_1  D_1  S_1  
     e( 11 - 11) =      9.75099  eV     1   --> A_1  D_1  S_1  
     e( 12 - 13) =     11.75259  eV     2   --> B_1  D_3  S_3  
     e( 12 - 13) =     11.75259  eV     2   --> B_2  D_4  S_4  
     e( 14 - 14) =     14.41117  eV     1   --> A_1  D_1  S_1  
     e( 15 - 15) =     16.13075  eV     1   --> A_1  D_1  S_1  
     e( 16 - 16) =     17.26302  eV     1   --> A_2  D_2  S_2  

 **************************************************************************

 **************************************************************************

                    xk=(   0.33333,   0.00000,   0.00000  )

     Band symmetry, C_2v (mm2)  point group:

     e(  1 -  1) =     -8.10645  eV     1   --> A_1  D_1  S_1  
     e(  2 -  3) =     -8.06000  eV     2   --> B_1  D_3  S_3  
     e(  2 -  3) =     -8.06000  eV     2   --> B_2  D_4  S_4  
     e(  4 -  4) =     -7.99942  eV     1   --> A_1  D_1  S_1  
     e(  5 -  5) =     -7.99061  eV     1   --> A_2  D_2  S_2  
     e(  6 -  6) =     -5.58748  eV     1   --> A_1  D_1  S_1  
     e(  7 -  7) =      4.00169  eV     1   --> A_1  D_1  S_1  
     e(  8 -  9) =      5.69642  eV     2   --> B_1  D_3  S_3  
     e(  8 -  9) =      5.69642  eV     2   --> B_2  D_4  S_4  
     e( 10 - 10) =      9.22696  eV     1   --> A_1  D_1  S_1  
     e( 11 - 11) =      9.83100  eV     1   --> A_1  D_1  S_1  
     e( 12 - 13) =     11.99777  eV     2   --> B_1  D_3  S_3  
     e( 12 - 13) =     11.99777  eV     2   --> B_2  D_4  S_4  
     e( 14 - 14) =     14.21527  eV     1   --> A_1  D_1  S_1  
     e( 15 - 15) =     16.45385  eV     1   --> A_1  D_1  S_1  
     e( 16 - 16) =     17.35000  eV     1   --> A_2  D_2  S_2  

 **************************************************************************

 **************************************************************************

                    xk=(   0.36667,   0.00000,   0.00000  )

     Band symmetry, C_2v (mm2)  point group:

     e(  1 -  1) =     -8.11218  eV     1   --> A_1  D_1  S_1  
     e(  2 -  3) =     -8.05774  eV     2   --> B_1  D_3  S_3  
     e(  2 -  3) =     -8.05774  eV     2   --> B_2  D_4  S_4  
     e(  4 -  4) =     -8.00053  eV     1   --> A_1  D_1  S_1  
     e(  5 -  5) =     -7.98994  eV     1   --> A_2  D_2  S_2  
     e(  6 -  6) =     -5.50095  eV     1   --> A_1  D_1  S_1  
     e(  7 -  7) =      3.71892  eV     1   --> A_1  D_1  S_1  
     e(  8 -  9) =      5.55424  eV     2   --> B_1  D_3  S_3  
     e(  8 -  9) =      5.55424  eV     2   --> B_2  D_4  S_4  
     e( 10 - 10) =      9.13316  eV     1   --> A_1  D_1  S_1  
     e( 11 - 11) =      9.93687  eV     1   --> A_1  D_1  S_1  
     e( 12 - 13) =     12.25257  eV     2   --> B_1  D_3  S_3  
     e( 12 - 13) =     12.25257  eV     2   --> B_2  D_4  S_4  
     e( 14 - 14) =     14.07454  eV     1   --> A_1  D_1  S_1  
     e( 15 - 15) =     16.79115  eV     1   --> A_1  D_1  S_1  
     e( 16 - 16) =     17.44740  eV     1   --> A_2  D_2  S_2  

 **************************************************************************

 **************************************************************************

                    xk=(   0.40000,   0.00000,   0.00000  )

     Band symmetry, C_2v (mm2)  point group:

     e(  1 -  1) =     -8.11799  eV     1   --> A_1  D_1  S_1  
     e(  2 -  3) =     -8.05538  eV     2   --> B_1  D_3  S_3  
     e(  2 -  3) =     -8.05538  eV     2   --> B_2  D_4  S_4  
     e(  4 -  4) =     -8.00171  eV     1   --> A_1  D_1  S_1  
     e(  5 -  5) =     -7.98925  eV     1   --> A_2  D_2  S_2  
     e(  6 -  6) =     -5.40739  eV     1   --> A_1  D_1  S_1  
     e(  7 -  7) =      3.43892  eV     1   --> A_1  D_1  S_1  
     e(  8 -  9) =      5.41419  eV     2   --> B_1  D_3  S_3  
     e(  8 -  9) =      5.41419  eV     2   --> B_2  D_4  S_4  
     e( 10 - 10) =      9.02091  eV     1   --> A_1  D_1  S_1  
     e( 11 - 11) =     10.01738  eV     1   --> A_1  D_1  S_1  
     e( 12 - 13) =     12.51487  eV     2   --> B_1  D_3  S_3  
     e( 12 - 13) =     12.51487  eV     2   --> B_2  D_4  S_4  
     e( 14 - 14) =     13.99769  eV     1   --> A_1  D_1  S_1  
     e( 15 - 15) =     17.13949  eV     1   --> A_1  D_1  S_1  
     e( 16 - 16) =     17.55288  eV     1   --> A_2  D_2  S_2  

 **************************************************************************

 **************************************************************************

                    xk=(   0.43333,   0.00000,   0.00000  )

     Band symmetry, C_2v (mm2)  point group:

     e(  1 -  1) =     -8.12381  eV     1   --> A_1  D_1  S_1  
     e(  2 -  3) =     -8.05292  eV     2   --> B_1  D_3  S_3  
     e(  2 -  3) =     -8.05292  eV     2   --> B_2  D_4  S_4  
     e(  4 -  4) =     -8.00297  eV     1   --> A_1  D_1  S_1  
     e(  5 -  5) =     -7.98853  eV     1   --> A_2  D_2  S_2  
     e(  6 -  6) =     -5.30708  eV     1   --> A_1  D_1  S_1  
     e(  7 -  7) =      3.16218  eV     1   --> A_1  D_1  S_1  
     e(  8 -  9) =      5.27768  eV     2   --> B_1  D_3  S_3  
     e(  8 -  9) =      5.27768  eV     2   --> B_2  D_4  S_4  
     e( 10 - 10) =      8.90576  eV     1   --> A_1  D_1  S_1  
     e( 11 - 11) =     10.05366  eV     1   --> A_1  D_1  S_1  
     e( 12 - 13) =     12.78367  eV     2   --> B_1  D_3  S_3  
     e( 12 - 13) =     12.78367  eV     2   --> B_2  D_4  S_4  
     e( 14 - 14) =     13.98979  eV     1   --> A_1  D_1  S_1  
     e( 15 - 15) =     17.49594  eV     1   --> A_1  D_1  S_1  
     e( 16 - 16) =     17.66763  eV     1   --> A_2  D_2  S_2  

 **************************************************************************

 **************************************************************************

                    xk=(   0.46667,   0.00000,   0.00000  )

     Band symmetry, C_2v (mm2)  point group:

     e(  1 -  1) =     -8.12958  eV     1   --> A_1  D_1  S_1  
     e(  2 -  3) =     -8.05039  eV     2   --> B_1  D_3  S_3  
     e(  2 -  3) =     -8.05039  eV     2   --> B_2  D_4  S_4  
     e(  4 -  4) =     -8.00428  eV     1   --> A_1  D_1  S_1  
     e(  5 -  5) =     -7.98780  eV     1   --> A_2  D_2  S_2  
     e(  6 -  6) =     -5.20045  eV     1   --> A_1  D_1  S_1  
     e(  7 -  7) =      2.88890  eV     1   --> A_1  D_1  S_1  
     e(  8 -  9) =      5.14566  eV     2   --> B_1  D_3  S_3  
     e(  8 -  9) =      5.14566  eV     2   --> B_2  D_4  S_4  
     e( 10 - 10) =      8.79342  eV     1   --> A_1  D_1  S_1  
     e( 11 - 11) =     10.04149  eV     1   --> A_1  D_1  S_1  
     e( 12 - 13) =     13.05776  eV     2   --> B_1  D_3  S_3  
     e( 12 - 13) =     13.05776  eV     2   --> B_2  D_4  S_4  
     e( 14 - 14) =     14.05004  eV     1   --> A_1  D_1  S_1  
     e( 15 - 15) =     17.79148  eV     1   --> A_2  D_2  S_2  
     e( 16 - 16) =     17.85754  eV     1   --> A_1  D_1  S_1  

 **************************************************************************

 **************************************************************************

                    xk=(   0.50000,   0.00000,   0.00000  )

     Band symmetry, C_2v (mm2)  point group:

     e(  1 -  1) =     -8.13524  eV     1   --> A_1  D_1  S_1  
     e(  2 -  3) =     -8.04781  eV     2   --> B_1  D_3  S_3  
     e(  2 -  3) =     -8.04781  eV     2   --> B_2  D_4  S_4  
     e(  4 -  4) =     -8.00563  eV     1   --> A_1  D_1  S_1  
     e(  5 -  5) =     -7.98705  eV     1   --> A_2  D_2  S_2  
     e(  6 -  6) =     -5.08791  eV     1   --> A_1  D_1  S_1  
     e(  7 -  7) =      2.61954  eV     1   --> A_1  D_1  S_1  
     e(  8 -  9) =      5.01898  eV     2   --> B_1  D_3  S_3  
     e(  8 -  9) =      5.01898  eV     2   --> B_2  D_4  S_4  
     e( 10 - 10) =      8.68671  eV     1   --> A_1  D_1  S_1  
     e( 11 - 11) =      9.98517  eV     1   --> A_1  D_1  S_1  
     e( 12 - 13) =     13.33639  eV     2   --> B_1  D_3  S_3  
     e( 12 - 13) =     13.33639  eV     2   --> B_2  D_4  S_4  
     e( 14 - 14) =     14.17270  eV     1   --> A_1  D_1  S_1  
     e( 15 - 15) =     17.92418  eV     1   --> A_2  D_2  S_2  
     e( 16 - 16) =     18.22098  eV     1   --> A_1  D_1  S_1  

 **************************************************************************

 **************************************************************************

                    xk=(   0.53333,   0.00000,   0.00000  )

     Band symmetry, C_2v (mm2)  point group:

     e(  1 -  1) =     -8.14074  eV     1   --> A_1  D_1  S_1  
     e(  2 -  3) =     -8.04523  eV     2   --> B_1  D_3  S_3  
     e(  2 -  3) =     -8.04523  eV     2   --> B_2  D_4  S_4  
     e(  4 -  4) =     -8.00700  eV     1   --> A_1  D_1  S_1  
     e(  5 -  5) =     -7.98631  eV     1   --> A_2  D_2  S_2  
     e(  6 -  6) =     -4.96997  eV     1   --> A_1  D_1  S_1  
     e(  7 -  7) =      2.35456  eV     1   --> A_1  D_1  S_1  
     e(  8 -  9) =      4.89821  eV     2   --> B_1  D_3  S_3  
     e(  8 -  9) =      4.89821  eV     2   --> B_2  D_4  S_4  
     e( 10 - 10) =      8.58714  eV     1   --> A_1  D_1  S_1  
     e( 11 - 11) =      9.89325  eV     1   --> A_1  D_1  S_1  
     e( 12 - 13) =     13.61847  eV     2   --> B_1  D_3  S_3  
     e( 12 - 13) =     13.61847  eV     2   --> B_2  D_4  S_4  
     e( 14 - 14) =     14.34752  eV     1   --> A_1  D_1  S_1  
     e( 15 - 15) =     18.06542  eV     1   --> A_2  D_2  S_2  
     e( 16 - 16) =     18.58226  eV     1   --> A_1  D_1  S_1  

 **************************************************************************

 **************************************************************************

                    xk=(   0.56667,   0.00000,   0.00000  )

     Band symmetry, C_2v (mm2)  point group:

     e(  1 -  1) =     -8.14603  eV     1   --> A_1  D_1  S_1  
     e(  2 -  3) =     -8.04266  eV     2   --> B_1  D_3  S_3  
     e(  2 -  3) =     -8.04266  eV     2   --> B_2  D_4  S_4  
     e(  4 -  4) =     -8.00837  eV     1   --> A_1  D_1  S_1  
     e(  5 -  5) =     -7.98557  eV     1   --> A_2  D_2  S_2  
     e(  6 -  6) =     -4.84725  eV     1   --> A_1  D_1  S_1  
     e(  7 -  7) =      2.09460  eV     1   --> A_1  D_1  S_1  
     e(  8 -  9) =      4.78394  eV     2   --> B_1  D_3  S_3  
     e(  8 -  9) =      4.78394  eV     2   --> B_2  D_4  S_4  
     e( 10 - 10) =      8.49579  eV     1   --> A_1  D_1  S_1  
     e( 11 - 11) =      9.77594  eV     1   --> A_1  D_1  S_1  
     e( 12 - 13) =     13.90333  eV     2   --> B_1  D_3  S_3  
     e( 12 - 13) =     13.90333  eV     2   --> B_2  D_4  S_4  
     e( 14 - 14) =     14.56383  eV     1   --> A_1  D_1  S_1  
     e( 15 - 15) =     18.21474  eV     1   --> A_2  D_2  S_2  
     e( 16 - 16) =     18.93646  eV     1   --> A_1  D_1  S_1  

 **************************************************************************

 **************************************************************************

                    xk=(   0.60000,   0.00000,   0.00000  )

     Band symmetry, C_2v (mm2)  point group:

     e(  1 -  1) =     -8.15108  eV     1   --> A_1  D_1  S_1  
     e(  2 -  3) =     -8.04013  eV     2   --> B_1  D_3  S_3  
     e(  2 -  3) =     -8.04013  eV     2   --> B_2  D_4  S_4  
     e(  4 -  4) =     -8.00974  eV     1   --> A_1  D_1  S_1  
     e(  5 -  5) =     -7.98485  eV     1   --> A_2  D_2  S_2  
     e(  6 -  6) =     -4.72047  eV     1   --> A_1  D_1  S_1  
     e(  7 -  7) =      1.84040  eV     1   --> A_1  D_1  S_1  
     e(  8 -  9) =      4.67677  eV     2   --> B_1  D_3  S_3  
     e(  8 -  9) =      4.67677  eV     2   --> B_2  D_4  S_4  
     e( 10 - 10) =      8.41336  eV     1   --> A_1  D_1  S_1  
     e( 11 - 11) =      9.64219  eV     1   --> A_1  D_1  S_1  
     e( 12 - 13) =     14.19051  eV     2   --> B_1  D_3  S_3  
     e( 12 - 13) =     14.19051  eV     2   --> B_2  D_4  S_4  
     e( 14 - 14) =     14.81138  eV     1   --> A_1  D_1  S_1  
     e( 15 - 15) =     18.37285  eV     1   --> A_2  D_2  S_2  
     e( 16 - 16) =     19.27727  eV     1   --> A_1  D_1  S_1  

 **************************************************************************

 **************************************************************************

                    xk=(   0.63333,   0.00000,   0.00000  )

     Band symmetry, C_2v (mm2)  point group:

     e(  1 -  1) =     -8.15584  eV     1   --> A_1  D_1  S_1  
     e(  2 -  3) =     -8.03768  eV     2   --> B_1  D_3  S_3  
     e(  2 -  3) =     -8.03768  eV     2   --> B_2  D_4  S_4  
     e(  4 -  4) =     -8.01107  eV     1   --> A_1  D_1  S_1  
     e(  5 -  5) =     -7.98416  eV     1   --> A_2  D_2  S_2  
     e(  6 -  6) =     -4.59053  eV     1   --> A_1  D_1  S_1  
     e(  7 -  7) =      1.59283  eV     1   --> A_1  D_1  S_1  
     e(  8 -  9) =      4.57685  eV     2   --> B_1  D_3  S_3  
     e(  8 -  9) =      4.57685  eV     2   --> B_2  D_4  S_4  
     e( 10 - 10) =      8.34032  eV     1   --> A_1  D_1  S_1  
     e( 11 - 11) =      9.49957  eV     1   --> A_1  D_1  S_1  
     e( 12 - 13) =     14.47853  eV     2   --> B_1  D_3  S_3  
     e( 12 - 13) =     14.47853  eV     2   --> B_2  D_4  S_4  
     e( 14 - 14) =     15.08142  eV     1   --> A_1  D_1  S_1  
     e( 15 - 15) =     18.53830  eV     1   --> A_2  D_2  S_2  
     e( 16 - 16) =     19.59659  eV     1   --> A_1  D_1  S_1  

 **************************************************************************

 **************************************************************************

                    xk=(   0.66667,   0.00000,   0.00000  )

     Band symmetry, C_2v (mm2)  point group:

     e(  1 -  1) =     -8.16028  eV     1   --> A_1  D_1  S_1  
     e(  2 -  3) =     -8.03533  eV     2   --> B_1  D_3  S_3  
     e(  2 -  3) =     -8.03533  eV     2   --> B_2  D_4  S_4  
     e(  4 -  4) =     -8.01236  eV     1   --> A_1  D_1  S_1  
     e(  5 -  5) =     -7.98349  eV     1   --> A_2  D_2  S_2  
     e(  6 -  6) =     -4.45848  eV     1   --> A_1  D_1  S_1  
     e(  7 -  7) =      1.35305  eV     1   --> A_1  D_1  S_1  
     e(  8 -  9) =      4.48465  eV     2   --> B_1  D_3  S_3  
     e(  8 -  9) =      4.48465  eV     2   --> B_2  D_4  S_4  
     e( 10 - 10) =      8.27710  eV     1   --> A_1  D_1  S_1  
     e( 11 - 11) =      9.35391  eV     1   --> A_1  D_1  S_1  
     e( 12 - 13) =     14.76675  eV     2   --> B_1  D_3  S_3  
     e( 12 - 13) =     14.76675  eV     2   --> B_2  D_4  S_4  
     e( 14 - 14) =     15.36707  eV     1   --> A_1  D_1  S_1  
     e( 15 - 15) =     18.71095  eV     1   --> A_2  D_2  S_2  
     e( 16 - 16) =     19.88419  eV     1   --> A_1  D_1  S_1  

 **************************************************************************

 **************************************************************************

                    xk=(   0.70000,   0.00000,   0.00000  )

     Band symmetry, C_2v (mm2)  point group:

     e(  1 -  1) =     -8.16438  eV     1   --> A_1  D_1  S_1  
     e(  2 -  3) =     -8.03311  eV     2   --> B_1  D_3  S_3  
     e(  2 -  3) =     -8.03311  eV     2   --> B_2  D_4  S_4  
     e(  4 -  4) =     -8.01358  eV     1   --> A_1  D_1  S_1  
     e(  5 -  5) =     -7.98287  eV     1   --> A_2  D_2  S_2  
     e(  6 -  6) =     -4.32568  eV     1   --> A_1  D_1  S_1  
     e(  7 -  7) =      1.12244  eV     1   --> A_1  D_1  S_1  
     e(  8 -  9) =      4.40047  eV     2   --> B_1  D_3  S_3  
     e(  8 -  9) =      4.40047  eV     2   --> B_2  D_4  S_4  
     e( 10 - 10) =      8.22402  eV     1   --> A_1  D_1  S_1  
     e( 11 - 11) =      9.20956  eV     1   --> A_1  D_1  S_1  
     e( 12 - 13) =     15.05395  eV     2   --> B_1  D_3  S_3  
     e( 12 - 13) =     15.05395  eV     2   --> B_2  D_4  S_4  
     e( 14 - 14) =     15.66251  eV     1   --> A_1  D_1  S_1  
     e( 15 - 15) =     18.89006  eV     1   --> A_2  D_2  S_2  
     e( 16 - 16) =     20.12774  eV     1   --> A_1  D_1  S_1  

 **************************************************************************

 **************************************************************************

                    xk=(   0.73333,   0.00000,   0.00000  )

     Band symmetry, C_2v (mm2)  point group:

     e(  1 -  1) =     -8.16812  eV     1   --> A_1  D_1  S_1  
     e(  2 -  3) =     -8.03105  eV     2   --> B_1  D_3  S_3  
     e(  2 -  3) =     -8.03105  eV     2   --> B_2  D_4  S_4  
     e(  4 -  4) =     -8.01473  eV     1   --> A_1  D_1  S_1  
     e(  5 -  5) =     -7.98229  eV     1   --> A_2  D_2  S_2  
     e(  6 -  6) =     -4.19375  eV     1   --> A_1  D_1  S_1  
     e(  7 -  7) =      0.90272  eV     1   --> A_1  D_1  S_1  
     e(  8 -  9) =      4.32454  eV     2   --> B_1  D_3  S_3  
     e(  8 -  9) =      4.32454  eV     2   --> B_2  D_4  S_4  
     e( 10 - 10) =      8.18132  eV     1   --> A_1  D_1  S_1  
     e( 11 - 11) =      9.06970  eV     1   --> A_1  D_1  S_1  
     e( 12 - 13) =     15.33855  eV     2   --> B_1  D_3  S_3  
     e( 12 - 13) =     15.33855  eV     2   --> B_2  D_4  S_4  
     e( 14 - 14) =     15.96271  eV     1   --> A_1  D_1  S_1  
     e( 15 - 15) =     19.07461  eV     1   --> A_2  D_2  S_2  
     e( 16 - 16) =     20.31411  eV     1   --> A_1  D_1  S_1  

 **************************************************************************

 **************************************************************************

                    xk=(   0.76667,   0.00000,   0.00000  )

     Band symmetry, C_2v (mm2)  point group:

     e(  1 -  1) =     -8.17145  eV     1   --> A_1  D_1  S_1  
     e(  2 -  3) =     -8.02917  eV     2   --> B_1  D_3  S_3  
     e(  2 -  3) =     -8.02917  eV     2   --> B_2  D_4  S_4  
     e(  4 -  4) =     -8.01578  eV     1   --> A_1  D_1  S_1  
     e(  5 -  5) =     -7.98176  eV     1   --> A_2  D_2  S_2  
     e(  6 -  6) =     -4.06475  eV     1   --> A_1  D_1  S_1  
     e(  7 -  7) =      0.69603  eV     1   --> A_1  D_1  S_1  
     e(  8 -  9) =      4.25710  eV     2   --> B_1  D_3  S_3  
     e(  8 -  9) =      4.25710  eV     2   --> B_2  D_4  S_4  
     e( 10 - 10) =      8.14921  eV     1   --> A_1  D_1  S_1  
     e( 11 - 11) =      8.93674  eV     1   --> A_1  D_1  S_1  
     e( 12 - 13) =     15.61837  eV     2   --> B_1  D_3  S_3  
     e( 12 - 13) =     15.61837  eV     2   --> B_2  D_4  S_4  
     e( 14 - 14) =     16.26293  eV     1   --> A_1  D_1  S_1  
     e( 15 - 15) =     19.26310  eV     1   --> A_2  D_2  S_2  
     e( 16 - 16) =     20.43242  eV     1   --> A_1  D_1  S_1  

 **************************************************************************

 **************************************************************************

                    xk=(   0.80000,   0.00000,   0.00000  )

     Band symmetry, C_2v (mm2)  point group:

     e(  1 -  1) =     -8.17439  eV     1   --> A_1  D_1  S_1  
     e(  2 -  3) =     -8.02749  eV     2   --> B_1  D_3  S_3  
     e(  2 -  3) =     -8.02749  eV     2   --> B_2  D_4  S_4  
     e(  4 -  4) =     -8.01672  eV     1   --> A_1  D_1  S_1  
     e(  5 -  5) =     -7.98130  eV     1   --> A_2  D_2  S_2  
     e(  6 -  6) =     -3.94123  eV     1   --> A_1  D_1  S_1  
     e(  7 -  7) =      0.50492  eV     1   --> A_1  D_1  S_1  
     e(  8 -  9) =      4.19828  eV     2   --> B_1  D_3  S_3  
     e(  8 -  9) =      4.19828  eV     2   --> B_2  D_4  S_4  
     e( 10 - 10) =      8.12764  eV     1   --> A_1  D_1  S_1  
     e( 11 - 11) =      8.81238  eV     1   --> A_1  D_1  S_1  
     e( 12 - 13) =     15.88997  eV     2   --> B_1  D_3  S_3  
     e( 12 - 13) =     15.88997  eV     2   --> B_2  D_4  S_4  
     e( 14 - 14) =     16.55799  eV     1   --> A_1  D_1  S_1  
     e( 15 - 15) =     19.45323  eV     1   --> A_2  D_2  S_2  
     e( 16 - 16) =     20.47845  eV     1   --> A_1  D_1  S_1  

 **************************************************************************

 **************************************************************************

                    xk=(   0.83333,   0.00000,   0.00000  )

     Band symmetry, C_2v (mm2)  point group:

     e(  1 -  1) =     -8.17690  eV     1   --> A_1  D_1  S_1  
     e(  2 -  3) =     -8.02603  eV     2   --> B_1  D_3  S_3  
     e(  2 -  3) =     -8.02603  eV     2   --> B_2  D_4  S_4  
     e(  4 -  4) =     -8.01754  eV     1   --> A_1  D_1  S_1  
     e(  5 -  5) =     -7.98089  eV     1   --> A_2  D_2  S_2  
     e(  6 -  6) =     -3.82623  eV     1   --> A_1  D_1  S_1  
     e(  7 -  7) =      0.33262  eV     1   --> A_1  D_1  S_1  
     e(  8 -  9) =      4.14830  eV     2   --> B_1  D_3  S_3  
     e(  8 -  9) =      4.14830  eV     2   --> B_2  D_4  S_4  
     e( 10 - 10) =      8.11672  eV     1   --> A_1  D_1  S_1  
     e( 11 - 11) =      8.69820  eV     1   --> A_1  D_1  S_1  
     e( 12 - 13) =     16.14916  eV     2   --> B_1  D_3  S_3  
     e( 12 - 13) =     16.14916  eV     2   --> B_2  D_4  S_4  
     e( 14 - 14) =     16.84213  eV     1   --> A_1  D_1  S_1  
     e( 15 - 15) =     19.64176  eV     1   --> A_2  D_2  S_2  
     e( 16 - 16) =     20.45810  eV     1   --> A_1  D_1  S_1  

 **************************************************************************

 **************************************************************************

                    xk=(   0.86667,   0.00000,   0.00000  )

     Band symmetry, C_2v (mm2)  point group:

     e(  1 -  1) =     -8.17896  eV     1   --> A_1  D_1  S_1  
     e(  2 -  3) =     -8.02481  eV     2   --> B_1  D_3  S_3  
     e(  2 -  3) =     -8.02481  eV     2   --> B_2  D_4  S_4  
     e(  4 -  4) =     -8.01823  eV     1   --> A_1  D_1  S_1  
     e(  5 -  5) =     -7.98055  eV     1   --> A_2  D_2  S_2  
     e(  6 -  6) =     -3.72342  eV     1   --> A_1  D_1  S_1  
     e(  7 -  7) =      0.18279  eV     1   --> A_1  D_1  S_1  
     e(  8 -  9) =      4.10722  eV     2   --> B_1  D_3  S_3  
     e(  8 -  9) =      4.10722  eV     2   --> B_2  D_4  S_4  
     e( 10 - 10) =      8.11602  eV     1   --> A_1  D_1  S_1  
     e( 11 - 11) =      8.59512  eV     1   --> A_1  D_1  S_1  
     e( 12 - 13) =     16.38875  eV     2   --> B_1  D_3  S_3  
     e( 12 - 13) =     16.38875  eV     2   --> B_2  D_4  S_4  
     e( 14 - 14) =     17.10736  eV     1   --> A_1  D_1  S_1  
     e( 15 - 15) =     19.82332  eV     1   --> A_2  D_2  S_2  
     e( 16 - 16) =     20.38687  eV     1   --> A_1  D_1  S_1  

 **************************************************************************

 **************************************************************************

                    xk=(   0.90000,   0.00000,   0.00000  )

     Band symmetry, C_2v (mm2)  point group:

     e(  1 -  1) =     -8.18057  eV     1   --> A_1  D_1  S_1  
     e(  2 -  3) =     -8.02384  eV     2   --> B_1  D_3  S_3  
     e(  2 -  3) =     -8.02384  eV     2   --> B_2  D_4  S_4  
     e(  4 -  4) =     -8.01876  eV     1   --> A_1  D_1  S_1  
     e(  5 -  5) =     -7.98028  eV     1   --> A_2  D_2  S_2  
     e(  6 -  6) =     -3.63689  eV     1   --> A_1  D_1  S_1  
     e(  7 -  7) =      0.05967  eV     1   --> A_1  D_1  S_1  
     e(  8 -  9) =      4.07518  eV     2   --> B_1  D_3  S_3  
     e(  8 -  9) =      4.07518  eV     2   --> B_2  D_4  S_4  
     e( 10 - 10) =      8.12515  eV     1   --> A_1  D_1  S_1  
     e( 11 - 11) =      8.50538  eV     1   --> A_1  D_1  S_1  
     e( 12 - 13) =     16.59927  eV     2   --> B_1  D_3  S_3  
     e( 12 - 13) =     16.59927  eV     2   --> B_2  D_4  S_4  
     e( 14 - 14) =     17.34313  eV     1   --> A_1  D_1  S_1  
     e( 15 - 15) =     19.99008  eV     1   --> A_2  D_2  S_2  
     e( 16 - 16) =     20.28720  eV     1   --> A_1  D_1  S_1  

 **************************************************************************

 **************************************************************************

                    xk=(   0.93333,   0.00000,   0.00000  )

     Band symmetry, C_2v (mm2)  point group:

     e(  1 -  1) =     -8.18175  eV     1   --> A_1  D_1  S_1  
     e(  2 -  3) =     -8.02315  eV     2   --> B_1  D_3  S_3  
     e(  2 -  3) =     -8.02315  eV     2   --> B_2  D_4  S_4  
     e(  4 -  4) =     -8.01916  eV     1   --> A_1  D_1  S_1  
     e(  5 -  5) =     -7.98009  eV     1   --> A_2  D_2  S_2  
     e(  6 -  6) =     -3.57101  eV     1   --> A_1  D_1  S_1  
     e(  7 -  7) =     -0.03246  eV     1   --> A_1  D_1  S_1  
     e(  8 -  9) =      4.05224  eV     2   --> B_1  D_3  S_3  
     e(  8 -  9) =      4.05224  eV     2   --> B_2  D_4  S_4  
     e( 10 - 10) =      8.14144  eV     1   --> A_1  D_1  S_1  
     e( 11 - 11) =      8.43048  eV     1   --> A_1  D_1  S_1  
     e( 12 - 13) =     16.76743  eV     2   --> B_1  D_3  S_3  
     e( 12 - 13) =     16.76743  eV     2   --> B_2  D_4  S_4  
     e( 14 - 14) =     17.53401  eV     1   --> A_1  D_1  S_1  
     e( 15 - 15) =     20.12875  eV     1   --> A_2  D_2  S_2  
     e( 16 - 16) =     20.18463  eV     1   --> A_1  D_1  S_1  

 **************************************************************************

 **************************************************************************

                    xk=(   0.96667,   0.00000,   0.00000  )

     Band symmetry, C_2v (mm2)  point group:

     e(  1 -  1) =     -8.18245  eV     1   --> A_1  D_1  S_1  
     e(  2 -  3) =     -8.02273  eV     2   --> B_1  D_3  S_3  
     e(  2 -  3) =     -8.02273  eV     2   --> B_2  D_4  S_4  
     e(  4 -  4) =     -8.01940  eV     1   --> A_1  D_1  S_1  
     e(  5 -  5) =     -7.97997  eV     1   --> A_2  D_2  S_2  
     e(  6 -  6) =     -3.52958  eV     1   --> A_1  D_1  S_1  
     e(  7 -  7) =     -0.08963  eV     1   --> A_1  D_1  S_1  
     e(  8 -  9) =      4.03844  eV     2   --> B_1  D_3  S_3  
     e(  8 -  9) =      4.03844  eV     2   --> B_2  D_4  S_4  
     e( 10 - 10) =      8.16019  eV     1   --> A_1  D_1  S_1  
     e( 11 - 11) =      8.37655  eV     1   --> A_1  D_1  S_1  
     e( 12 - 13) =     16.87768  eV     2   --> B_1  D_3  S_3  
     e( 12 - 13) =     16.87768  eV     2   --> B_2  D_4  S_4  
     e( 14 - 14) =     17.66118  eV     1   --> A_1  D_1  S_1  
     e( 15 - 15) =     20.10718  eV     1   --> A_1  D_1  S_1  
     e( 16 - 16) =     20.22326  eV     1   --> A_2  D_2  S_2  

 **************************************************************************

 **************************************************************************

                    xk=(   1.00000,   0.00000,   0.00000  )

     point group D_2d (-42m)
     there are  5 classes
     the character table:

       E     2S4   C2    2C2'  2s_d 
A_1    1.00  1.00  1.00  1.00  1.00
A_2    1.00  1.00  1.00 -1.00 -1.00
B_1    1.00 -1.00  1.00  1.00 -1.00
B_2    1.00 -1.00  1.00 -1.00  1.00
E      2.00  0.00 -2.00  0.00  0.00

     the symmetry operations in each class and the name of the first element:

     E        1
                                                                 
     2S4      7    8
                                                                 
     C2       4
                                                                 
     2C2'     2    3
                                                                 
     2s_d     5    6
                                                                 

     Band symmetry, D_2d (-42m) point group:

     e(  1 -  1) =     -8.18268  eV     1   --> B_2  X_3  W_2  
     e(  2 -  3) =     -8.02258  eV     2   --> E    X_5  W_3  
     e(  4 -  4) =     -8.01948  eV     1   --> A_1  X_1  W_1  
     e(  5 -  5) =     -7.97994  eV     1   --> B_1  X_2  W_1' 
     e(  6 -  6) =     -3.51542  eV     1   --> B_2  X_3  W_2  
     e(  7 -  7) =     -0.10905  eV     1   --> A_1  X_1  W_1  
     e(  8 -  9) =      4.03385  eV     2   --> E    X_5  W_3  
     e( 10 - 10) =      8.16959  eV     1   --> B_2  X_3  W_2  
     e( 11 - 11) =      8.35524  eV     1   --> A_1  X_1  W_1  
     e( 12 - 13) =     16.91637  eV     2   --> E    X_5  W_3  
     e( 14 - 14) =     17.70619  eV     1   --> A_1  X_1  W_1  
     e( 15 - 15) =     20.07817  eV     1   --> B_2  X_3  W_2  
     e( 16 - 16) =     20.20489  eV     1   -->   ?

 **************************************************************************

 **************************************************************************

                    xk=(   1.00500,  -0.03000,   0.03000  )

     point group C_s (m)    
     there are  2 classes
     the character table:

       E     s    
A'     1.00  1.00
A''    1.00 -1.00

     the symmetry operations in each class and the name of the first element:

     E        1
                                                                 
     s        2
                                                                 

     Band symmetry, C_s (m)     point group:

     e(  1 -  1) =     -8.18247  eV     1   --> A'             
     e(  2 -  2) =     -8.02309  eV     1   --> A'             
     e(  3 -  3) =     -8.02269  eV     1   --> A''            
     e(  4 -  4) =     -8.01905  eV     1   --> A'             
     e(  5 -  5) =     -7.98005  eV     1   --> A''            
     e(  6 -  6) =     -3.51474  eV     1   --> A'             
     e(  7 -  7) =     -0.10573  eV     1   --> A'             
     e(  8 -  8) =      3.99462  eV     1   --> A'             
     e(  9 -  9) =      4.04022  eV     1   --> A''            
     e( 10 - 10) =      8.20049  eV     1   --> A'             
     e( 11 - 11) =      8.39707  eV     1   --> A'             
     e( 12 - 12) =     16.82282  eV     1   --> A'             
     e( 13 - 13) =     16.86204  eV     1   --> A''            
     e( 14 - 14) =     17.70025  eV     1   --> A'             
     e( 15 - 15) =     19.85642  eV     1   --> A'             
     e( 16 - 16) =     19.94122  eV     1   --> A''            

 **************************************************************************

 **************************************************************************

                    xk=(   1.01000,  -0.06000,   0.06000  )

     Band symmetry, C_s (m)     point group:

     e(  1 -  1) =     -8.18185  eV     1   --> A'             
     e(  2 -  2) =     -8.02425  eV     1   --> A'             
     e(  3 -  3) =     -8.02301  eV     1   --> A''            
     e(  4 -  4) =     -8.01808  eV     1   --> A'             
     e(  5 -  5) =     -7.98038  eV     1   --> A''            
     e(  6 -  6) =     -3.51297  eV     1   --> A'             
     e(  7 -  7) =     -0.09589  eV     1   --> A'             
     e(  8 -  8) =      3.88536  eV     1   --> A'             
     e(  9 -  9) =      4.05927  eV     1   --> A''            
     e( 10 - 10) =      8.25315  eV     1   --> A'             
     e( 11 - 11) =      8.55450  eV     1   --> A'             
     e( 12 - 12) =     16.59278  eV     1   --> A'             
     e( 13 - 13) =     16.70856  eV     1   --> A''            
     e( 14 - 14) =     17.62371  eV     1   --> A'             
     e( 15 - 15) =     19.62465  eV     1   --> A''            
     e( 16 - 16) =     19.74069  eV     1   --> A'             

 **************************************************************************

 **************************************************************************

                    xk=(   1.01500,  -0.09000,   0.09000  )

     Band symmetry, C_s (m)     point group:

     e(  1 -  1) =     -8.18083  eV     1   --> A'             
     e(  2 -  2) =     -8.02576  eV     1   --> A'             
     e(  3 -  3) =     -8.02353  eV     1   --> A''            
     e(  4 -  4) =     -8.01687  eV     1   --> A'             
     e(  5 -  5) =     -7.98091  eV     1   --> A''            
     e(  6 -  6) =     -3.51082  eV     1   --> A'             
     e(  7 -  7) =     -0.07990  eV     1   --> A'             
     e(  8 -  8) =      3.72657  eV     1   --> A'             
     e(  9 -  9) =      4.09090  eV     1   --> A''            
     e( 10 - 10) =      8.29999  eV     1   --> A'             
     e( 11 - 11) =      8.83541  eV     1   --> A'             
     e( 12 - 12) =     16.29518  eV     1   --> A'             
     e( 13 - 13) =     16.47857  eV     1   --> A''            
     e( 14 - 14) =     17.42285  eV     1   --> A'             
     e( 15 - 15) =     19.28245  eV     1   --> A''            
     e( 16 - 16) =     19.79413  eV     1   --> A'             

 **************************************************************************

 **************************************************************************

                    xk=(   1.02000,  -0.12000,   0.12000  )

     Band symmetry, C_s (m)     point group:

     e(  1 -  1) =     -8.17947  eV     1   --> A'             
     e(  2 -  2) =     -8.02752  eV     1   --> A'             
     e(  3 -  3) =     -8.02426  eV     1   --> A''            
     e(  4 -  4) =     -8.01547  eV     1   --> A'             
     e(  5 -  5) =     -7.98164  eV     1   --> A''            
     e(  6 -  6) =     -3.50956  eV     1   --> A'             
     e(  7 -  7) =     -0.05835  eV     1   --> A'             
     e(  8 -  8) =      3.54188  eV     1   --> A'             
     e(  9 -  9) =      4.13487  eV     1   --> A''            
     e( 10 - 10) =      8.35018  eV     1   --> A'             
     e( 11 - 11) =      9.20738  eV     1   --> A'             
     e( 12 - 12) =     15.96664  eV     1   --> A'             
     e( 13 - 13) =     16.19627  eV     1   --> A''            
     e( 14 - 14) =     17.12468  eV     1   --> A'             
     e( 15 - 15) =     18.92509  eV     1   --> A''            
     e( 16 - 16) =     19.96752  eV     1   --> A'             

 **************************************************************************

 **************************************************************************

                    xk=(   1.02500,  -0.15000,   0.15000  )

     Band symmetry, C_s (m)     point group:

     e(  1 -  1) =     -8.17780  eV     1   --> A'             
     e(  2 -  2) =     -8.02947  eV     1   --> A'             
     e(  3 -  3) =     -8.02519  eV     1   --> A''            
     e(  4 -  4) =     -8.01388  eV     1   --> A'             
     e(  5 -  5) =     -7.98253  eV     1   --> A''            
     e(  6 -  6) =     -3.51093  eV     1   --> A'             
     e(  7 -  7) =     -0.03191  eV     1   --> A'             
     e(  8 -  8) =      3.35229  eV     1   --> A'             
     e(  9 -  9) =      4.19090  eV     1   --> A''            
     e( 10 - 10) =      8.40887  eV     1   --> A'             
     e( 11 - 11) =      9.64476  eV     1   --> A'             
     e( 12 - 12) =     15.62522  eV     1   --> A'             
     e( 13 - 13) =     15.88146  eV     1   --> A''            
     e( 14 - 14) =     16.77698  eV     1   --> A'             
     e( 15 - 15) =     18.56287  eV     1   --> A''            
     e( 16 - 16) =     20.20146  eV     1   --> A'             

 **************************************************************************

 **************************************************************************

                    xk=(   1.03000,  -0.18000,   0.18000  )

     Band symmetry, C_s (m)     point group:

     e(  1 -  1) =     -8.17590  eV     1   --> A'             
     e(  2 -  2) =     -8.03157  eV     1   --> A'             
     e(  3 -  3) =     -8.02632  eV     1   --> A''            
     e(  4 -  4) =     -8.01213  eV     1   --> A'             
     e(  5 -  5) =     -7.98356  eV     1   --> A''            
     e(  6 -  6) =     -3.51711  eV     1   --> A'             
     e(  7 -  7) =     -0.00116  eV     1   --> A'             
     e(  8 -  8) =      3.17440  eV     1   --> A'             
     e(  9 -  9) =      4.25858  eV     1   --> A''            
     e( 10 - 10) =      8.47748  eV     1   --> A'             
     e( 11 - 11) =     10.12918  eV     1   --> A'             
     e( 12 - 12) =     15.28168  eV     1   --> A'             
     e( 13 - 13) =     15.54831  eV     1   --> A''            
     e( 14 - 14) =     16.41174  eV     1   --> A'             
     e( 15 - 15) =     18.20284  eV     1   --> A''            
     e( 16 - 16) =     20.45463  eV     1   --> A'             

 **************************************************************************

 **************************************************************************

                    xk=(   1.03500,  -0.21000,   0.21000  )

     Band symmetry, C_s (m)     point group:

     e(  1 -  1) =     -8.17382  eV     1   --> A'             
     e(  2 -  2) =     -8.03373  eV     1   --> A'             
     e(  3 -  3) =     -8.02763  eV     1   --> A''            
     e(  4 -  4) =     -8.01023  eV     1   --> A'             
     e(  5 -  5) =     -7.98470  eV     1   --> A''            
     e(  6 -  6) =     -3.53065  eV     1   --> A'             
     e(  7 -  7) =      0.03366  eV     1   --> A'             
     e(  8 -  8) =      3.02079  eV     1   --> A'             
     e(  9 -  9) =      4.33742  eV     1   --> A''            
     e( 10 - 10) =      8.55583  eV     1   --> A'             
     e( 11 - 11) =     10.64567  eV     1   --> A'             
     e( 12 - 12) =     14.94470  eV     1   --> A'             
     e( 13 - 13) =     15.20661  eV     1   --> A''            
     e( 14 - 14) =     16.04725  eV     1   --> A'             
     e( 15 - 15) =     17.85034  eV     1   --> A''            
     e( 16 - 16) =     20.69752  eV     1   --> A'             

 **************************************************************************

 **************************************************************************

                    xk=(   1.04000,  -0.24000,   0.24000  )

     Band symmetry, C_s (m)     point group:

     e(  1 -  1) =     -8.17161  eV     1   --> A'             
     e(  2 -  2) =     -8.03589  eV     1   --> A'             
     e(  3 -  3) =     -8.02913  eV     1   --> A''            
     e(  4 -  4) =     -8.00820  eV     1   --> A'             
     e(  5 -  5) =     -7.98592  eV     1   --> A''            
     e(  6 -  6) =     -3.55422  eV     1   --> A'             
     e(  7 -  7) =      0.07298  eV     1   --> A'             
     e(  8 -  8) =      2.90054  eV     1   --> A'             
     e(  9 -  9) =      4.42681  eV     1   --> A''            
     e( 10 - 10) =      8.64324  eV     1   --> A'             
     e( 11 - 11) =     11.17878  eV     1   --> A'             
     e( 12 - 12) =     14.62422  eV     1   --> A'             
     e( 13 - 13) =     14.86312  eV     1   --> A''            
     e( 14 - 14) =     15.69494  eV     1   --> A'             
     e( 15 - 15) =     17.50892  eV     1   --> A''            
     e( 16 - 16) =     20.89935  eV     1   --> A'             

 **************************************************************************

 **************************************************************************

                    xk=(   1.04500,  -0.27000,   0.27000  )

     Band symmetry, C_s (m)     point group:

     e(  1 -  1) =     -8.16931  eV     1   --> A'             
     e(  2 -  2) =     -8.03798  eV     1   --> A'             
     e(  3 -  3) =     -8.03079  eV     1   --> A''            
     e(  4 -  4) =     -8.00610  eV     1   --> A'             
     e(  5 -  5) =     -7.98717  eV     1   --> A''            
     e(  6 -  6) =     -3.59051  eV     1   --> A'             
     e(  7 -  7) =      0.11818  eV     1   --> A'             
     e(  8 -  8) =      2.81962  eV     1   --> A'             
     e(  9 -  9) =      4.52603  eV     1   --> A''            
     e( 10 - 10) =      8.73853  eV     1   --> A'             
     e( 11 - 11) =     11.70517  eV     1   --> A'             
     e( 12 - 12) =     14.33631  eV     1   --> A'             
     e( 13 - 13) =     14.52268  eV     1   --> A''            
     e( 14 - 14) =     15.36414  eV     1   --> A'             
     e( 15 - 15) =     17.18171  eV     1   --> A''            
     e( 16 - 16) =     21.00819  eV     1   --> A'             

 **************************************************************************

 **************************************************************************

                    xk=(   1.05000,  -0.30000,   0.30000  )

     Band symmetry, C_s (m)     point group:

     e(  1 -  1) =     -8.16694  eV     1   --> A'             
     e(  2 -  2) =     -8.03994  eV     1   --> A'             
     e(  3 -  3) =     -8.03261  eV     1   --> A''            
     e(  4 -  4) =     -8.00397  eV     1   --> A'             
     e(  5 -  5) =     -7.98843  eV     1   --> A''            
     e(  6 -  6) =     -3.64174  eV     1   --> A'             
     e(  7 -  7) =      0.17171  eV     1   --> A'             
     e(  8 -  8) =      2.78111  eV     1   --> A'             
     e(  9 -  9) =      4.63423  eV     1   --> A''            
     e( 10 - 10) =      8.83986  eV     1   --> A'             
     e( 11 - 11) =     12.17926  eV     1   --> A'             
     e( 12 - 12) =     14.11321  eV     1   --> A'             
     e( 13 - 13) =     14.18874  eV     1   --> A''            
     e( 14 - 14) =     15.07022  eV     1   --> A'             
     e( 15 - 15) =     16.87084  eV     1   --> A''            
     e( 16 - 16) =     20.93953  eV     1   --> A'             

 **************************************************************************

 **************************************************************************

                    xk=(   1.04833,  -0.32333,   0.32333  )

     Band symmetry, C_s (m)     point group:

     e(  1 -  1) =     -8.16510  eV     1   --> A'             
     e(  2 -  2) =     -8.04131  eV     1   --> A'             
     e(  3 -  3) =     -8.03404  eV     1   --> A''            
     e(  4 -  4) =     -8.00236  eV     1   --> A'             
     e(  5 -  5) =     -7.98941  eV     1   --> A''            
     e(  6 -  6) =     -3.69028  eV     1   --> A'             
     e(  7 -  7) =      0.22164  eV     1   --> A'             
     e(  8 -  8) =      2.77258  eV     1   --> A'             
     e(  9 -  9) =      4.72221  eV     1   --> A''            
     e( 10 - 10) =      8.91945  eV     1   --> A'             
     e( 11 - 11) =     12.45990  eV     1   --> A'             
     e( 12 - 12) =     13.94935  eV     1   --> A''            
     e( 13 - 13) =     14.05606  eV     1   --> A'             
     e( 14 - 14) =     14.84359  eV     1   --> A'             
     e( 15 - 15) =     16.62224  eV     1   --> A''            
     e( 16 - 16) =     20.81060  eV     1   --> A'             

 **************************************************************************

 **************************************************************************

                    xk=(   1.04667,  -0.34667,   0.34667  )

     Band symmetry, C_s (m)     point group:

     e(  1 -  1) =     -8.16321  eV     1   --> A'             
     e(  2 -  2) =     -8.04258  eV     1   --> A'             
     e(  3 -  3) =     -8.03555  eV     1   --> A''            
     e(  4 -  4) =     -8.00080  eV     1   --> A'             
     e(  5 -  5) =     -7.99037  eV     1   --> A''            
     e(  6 -  6) =     -3.75010  eV     1   --> A'             
     e(  7 -  7) =      0.28290  eV     1   --> A'             
     e(  8 -  8) =      2.78761  eV     1   --> A'             
     e(  9 -  9) =      4.81466  eV     1   --> A''            
     e( 10 - 10) =      9.00039  eV     1   --> A'             
     e( 11 - 11) =     12.61392  eV     1   --> A'             
     e( 12 - 12) =     13.71597  eV     1   --> A''            
     e( 13 - 13) =     14.03577  eV     1   --> A'             
     e( 14 - 14) =     14.73572  eV     1   --> A'             
     e( 15 - 15) =     16.38532  eV     1   --> A''            
     e( 16 - 16) =     20.63346  eV     1   --> A'             

 **************************************************************************

 **************************************************************************

                    xk=(   1.04500,  -0.37000,   0.37000  )

     Band symmetry, C_s (m)     point group:

     e(  1 -  1) =     -8.16125  eV     1   --> A'             
     e(  2 -  2) =     -8.04375  eV     1   --> A'             
     e(  3 -  3) =     -8.03713  eV     1   --> A''            
     e(  4 -  4) =     -7.99930  eV     1   --> A'             
     e(  5 -  5) =     -7.99130  eV     1   --> A''            
     e(  6 -  6) =     -3.82104  eV     1   --> A'             
     e(  7 -  7) =      0.35709  eV     1   --> A'             
     e(  8 -  8) =      2.82504  eV     1   --> A'             
     e(  9 -  9) =      4.91104  eV     1   --> A''            
     e( 10 - 10) =      9.08123  eV     1   --> A'             
[...]

 **************************************************************************

                    xk=(   1.02333,  -0.67333,   0.67333  )

     Band symmetry, C_s (m)     point group:

     e(  1 -  1) =     -8.11979  eV     1   --> A'             
     e(  2 -  2) =     -8.05953  eV     1   --> A''            
     e(  3 -  3) =     -8.05621  eV     1   --> A'             
     e(  4 -  4) =     -7.99681  eV     1   --> A''            
     e(  5 -  5) =     -7.99171  eV     1   --> A'             
     e(  6 -  6) =     -5.22642  eV     1   --> A'             
     e(  7 -  7) =      2.65228  eV     1   --> A'             
     e(  8 -  8) =      4.68729  eV     1   --> A'             
     e(  9 -  9) =      6.20341  eV     1   --> A''            
     e( 10 - 10) =      9.26112  eV     1   --> A'             
     e( 11 - 11) =     11.18310  eV     1   --> A'             
     e( 12 - 12) =     11.26300  eV     1   --> A''            
     e( 13 - 13) =     12.38336  eV     1   --> A'             
     e( 14 - 14) =     14.78682  eV     1   --> A''            
     e( 15 - 15) =     16.56494  eV     1   --> A'             
     e( 16 - 16) =     17.36285  eV     1   --> A'             

 **************************************************************************

 **************************************************************************

                    xk=(   1.02167,  -0.69667,   0.69667  )

     Band symmetry, C_s (m)     point group:

     e(  1 -  1) =     -8.11518  eV     1   --> A'             
     e(  2 -  2) =     -8.06107  eV     1   --> A''            
     e(  3 -  3) =     -8.05756  eV     1   --> A'             
     e(  4 -  4) =     -7.99669  eV     1   --> A''            
     e(  5 -  5) =     -7.99191  eV     1   --> A'             
     e(  6 -  6) =     -5.32789  eV     1   --> A'             
     e(  7 -  7) =      2.91830  eV     1   --> A'             
     e(  8 -  8) =      4.88957  eV     1   --> A'             
     e(  9 -  9) =      6.27930  eV     1   --> A''            
     e( 10 - 10) =      9.18930  eV     1   --> A'             
     e( 11 - 11) =     11.05466  eV     1   --> A'             
     e( 12 - 12) =     11.15006  eV     1   --> A''            
     e( 13 - 13) =     12.34678  eV     1   --> A'             
     e( 14 - 14) =     14.82946  eV     1   --> A''            
     e( 15 - 15) =     16.33402  eV     1   --> A'             
     e( 16 - 16) =     17.11812  eV     1   --> A'             

 **************************************************************************

 **************************************************************************

                    xk=(   1.02000,  -0.72000,   0.72000  )

     Band symmetry, C_s (m)     point group:

     e(  1 -  1) =     -8.11047  eV     1   --> A'             
     e(  2 -  2) =     -8.06255  eV     1   --> A''            
     e(  3 -  3) =     -8.05899  eV     1   --> A'             
     e(  4 -  4) =     -7.99652  eV     1   --> A''            
     e(  5 -  5) =     -7.99214  eV     1   --> A'             
     e(  6 -  6) =     -5.42391  eV     1   --> A'             
     e(  7 -  7) =      3.19424  eV     1   --> A'             
     e(  8 -  8) =      5.09314  eV     1   --> A'             
     e(  9 -  9) =      6.34886  eV     1   --> A''            
     e( 10 - 10) =      9.11020  eV     1   --> A'             
     e( 11 - 11) =     10.93680  eV     1   --> A'             
     e( 12 - 12) =     11.04543  eV     1   --> A''            
     e( 13 - 13) =     12.27374  eV     1   --> A'             
     e( 14 - 14) =     14.89632  eV     1   --> A''            
     e( 15 - 15) =     16.15231  eV     1   --> A'             
     e( 16 - 16) =     16.86809  eV     1   --> A'             

 **************************************************************************

 **************************************************************************

                    xk=(   1.01833,  -0.74333,   0.74333  )

     Band symmetry, C_s (m)     point group:

     e(  1 -  1) =     -8.10572  eV     1   --> A'             
     e(  2 -  2) =     -8.06394  eV     1   --> A''            
     e(  3 -  3) =     -8.06047  eV     1   --> A'             
     e(  4 -  4) =     -7.99630  eV     1   --> A''            
     e(  5 -  5) =     -7.99240  eV     1   --> A'             
     e(  6 -  6) =     -5.51396  eV     1   --> A'             
     e(  7 -  7) =      3.47953  eV     1   --> A'             
     e(  8 -  8) =      5.29613  eV     1   --> A'             
     e(  9 -  9) =      6.41186  eV     1   --> A''            
     e( 10 - 10) =      9.02399  eV     1   --> A'             
     e( 11 - 11) =     10.83069  eV     1   --> A'             
     e( 12 - 12) =     10.94906  eV     1   --> A''            
     e( 13 - 13) =     12.15775  eV     1   --> A'             
     e( 14 - 14) =     14.98714  eV     1   --> A''            
     e( 15 - 15) =     16.02812  eV     1   --> A'             
     e( 16 - 16) =     16.61458  eV     1   --> A'             

 **************************************************************************

 **************************************************************************

                    xk=(   1.01667,  -0.76667,   0.76667  )

     Band symmetry, C_s (m)     point group:

     e(  1 -  1) =     -8.10100  eV     1   --> A'             
     e(  2 -  2) =     -8.06525  eV     1   --> A''            
     e(  3 -  3) =     -8.06198  eV     1   --> A'             
     e(  4 -  4) =     -7.99606  eV     1   --> A''            
     e(  5 -  5) =     -7.99266  eV     1   --> A'             
     e(  6 -  6) =     -5.59760  eV     1   --> A'             
     e(  7 -  7) =      3.77332  eV     1   --> A'             
     e(  8 -  8) =      5.49629  eV     1   --> A'             
     e(  9 -  9) =      6.46814  eV     1   --> A''            
     e( 10 - 10) =      8.92996  eV     1   --> A'             
     e( 11 - 11) =     10.73703  eV     1   --> A'             
     e( 12 - 12) =     10.86092  eV     1   --> A''            
     e( 13 - 13) =     11.99900  eV     1   --> A'             
     e( 14 - 14) =     15.10122  eV     1   --> A''            
     e( 15 - 15) =     15.95270  eV     1   --> A'             
     e( 16 - 16) =     16.36985  eV     1   --> A'             

 **************************************************************************

 **************************************************************************

                    xk=(   1.01500,  -0.79000,   0.79000  )

     Band symmetry, C_s (m)     point group:

     e(  1 -  1) =     -8.09637  eV     1   --> A'             
     e(  2 -  2) =     -8.06646  eV     1   --> A''            
     e(  3 -  3) =     -8.06351  eV     1   --> A'             
     e(  4 -  4) =     -7.99580  eV     1   --> A''            
     e(  5 -  5) =     -7.99292  eV     1   --> A'             
     e(  6 -  6) =     -5.67442  eV     1   --> A'             
     e(  7 -  7) =      4.07494  eV     1   --> A'             
     e(  8 -  8) =      5.69111  eV     1   --> A'             
     e(  9 -  9) =      6.51782  eV     1   --> A''            
     e( 10 - 10) =      8.82657  eV     1   --> A'             
     e( 11 - 11) =     10.65649  eV     1   --> A'             
     e( 12 - 12) =     10.78104  eV     1   --> A''            
     e( 13 - 13) =     11.80488  eV     1   --> A'             
     e( 14 - 14) =     15.23806  eV     1   --> A''            
     e( 15 - 15) =     15.87175  eV     1   --> A'             
     e( 16 - 16) =     16.18693  eV     1   --> A'             

 **************************************************************************

 **************************************************************************

                    xk=(   1.01333,  -0.81333,   0.81333  )

     Band symmetry, C_s (m)     point group:

     e(  1 -  1) =     -8.09191  eV     1   --> A'             
     e(  2 -  2) =     -8.06757  eV     1   --> A''            
     e(  3 -  3) =     -8.06500  eV     1   --> A'             
     e(  4 -  4) =     -7.99552  eV     1   --> A''            
     e(  5 -  5) =     -7.99316  eV     1   --> A'             
     e(  6 -  6) =     -5.74407  eV     1   --> A'             
     e(  7 -  7) =      4.38354  eV     1   --> A'             
     e(  8 -  8) =      5.87781  eV     1   --> A'             
     e(  9 -  9) =      6.56107  eV     1   --> A''            
     e( 10 - 10) =      8.71137  eV     1   --> A'             
     e( 11 - 11) =     10.58951  eV     1   --> A'             
     e( 12 - 12) =     10.70946  eV     1   --> A''            
     e( 13 - 13) =     11.58760  eV     1   --> A'             
     e( 14 - 14) =     15.39717  eV     1   --> A''            
     e( 15 - 15) =     15.68849  eV     1   --> A'             
     e( 16 - 16) =     16.15733  eV     1   --> A'             

 **************************************************************************

 **************************************************************************

                    xk=(   1.01167,  -0.83667,   0.83667  )

     Band symmetry, C_s (m)     point group:

     e(  1 -  1) =     -8.08770  eV     1   --> A'             
     e(  2 -  2) =     -8.06856  eV     1   --> A''            
     e(  3 -  3) =     -8.06642  eV     1   --> A'             
     e(  4 -  4) =     -7.99525  eV     1   --> A''            
     e(  5 -  5) =     -7.99338  eV     1   --> A'             
     e(  6 -  6) =     -5.80624  eV     1   --> A'             
     e(  7 -  7) =      4.69802  eV     1   --> A'             
     e(  8 -  8) =      6.05352  eV     1   --> A'             
     e(  9 -  9) =      6.59812  eV     1   --> A''            
     e( 10 - 10) =      8.58103  eV     1   --> A'             
     e( 11 - 11) =     10.53621  eV     1   --> A'             
     e( 12 - 12) =     10.64619  eV     1   --> A''            
     e( 13 - 13) =     11.36145  eV     1   --> A'             
     e( 14 - 14) =     15.44903  eV     1   --> A'             
     e( 15 - 15) =     15.57682  eV     1   --> A''            
     e( 16 - 16) =     16.22826  eV     1   --> A'             

 **************************************************************************

 **************************************************************************

                    xk=(   1.01000,  -0.86000,   0.86000  )

     Band symmetry, C_s (m)     point group:

     e(  1 -  1) =     -8.08384  eV     1   --> A'             
     e(  2 -  2) =     -8.06944  eV     1   --> A''            
     e(  3 -  3) =     -8.06775  eV     1   --> A'             
     e(  4 -  4) =     -7.99500  eV     1   --> A''            
     e(  5 -  5) =     -7.99359  eV     1   --> A'             
     e(  6 -  6) =     -5.86067  eV     1   --> A'             
     e(  7 -  7) =      5.01692  eV     1   --> A'             
     e(  8 -  8) =      6.21474  eV     1   --> A'             
     e(  9 -  9) =      6.62940  eV     1   --> A''            
     e( 10 - 10) =      8.43166  eV     1   --> A'             
     e( 11 - 11) =     10.49607  eV     1   --> A'             
     e( 12 - 12) =     10.59129  eV     1   --> A''            
     e( 13 - 13) =     11.14043  eV     1   --> A'             
     e( 14 - 14) =     15.20670  eV     1   --> A'             
     e( 15 - 15) =     15.77507  eV     1   --> A''            
     e( 16 - 16) =     16.33960  eV     1   --> A'             

 **************************************************************************

 **************************************************************************

                    xk=(   1.00833,  -0.88333,   0.88333  )

     Band symmetry, C_s (m)     point group:

     e(  1 -  1) =     -8.08040  eV     1   --> A'             
     e(  2 -  2) =     -8.07019  eV     1   --> A''            
     e(  3 -  3) =     -8.06895  eV     1   --> A'             
     e(  4 -  4) =     -7.99476  eV     1   --> A''            
     e(  5 -  5) =     -7.99376  eV     1   --> A'             
     e(  6 -  6) =     -5.90712  eV     1   --> A'             
     e(  7 -  7) =      5.33861  eV     1   --> A'             
     e(  8 -  8) =      6.35824  eV     1   --> A'             
     e(  9 -  9) =      6.65504  eV     1   --> A''            
     e( 10 - 10) =      8.25969  eV     1   --> A'             
     e( 11 - 11) =     10.46824  eV     1   --> A'             
     e( 12 - 12) =     10.54473  eV     1   --> A''            
     e( 13 - 13) =     10.93720  eV     1   --> A'             
     e( 14 - 14) =     14.97977  eV     1   --> A'             
     e( 15 - 15) =     15.98851  eV     1   --> A''            
     e( 16 - 16) =     16.46766  eV     1   --> A'             

 **************************************************************************

 **************************************************************************

                    xk=(   1.00667,  -0.90667,   0.90667  )

     Band symmetry, C_s (m)     point group:

     e(  1 -  1) =     -8.07746  eV     1   --> A'             
     e(  2 -  2) =     -8.07081  eV     1   --> A''            
     e(  3 -  3) =     -8.06998  eV     1   --> A'             
     e(  4 -  4) =     -7.99457  eV     1   --> A''            
     e(  5 -  5) =     -7.99391  eV     1   --> A'             
     e(  6 -  6) =     -5.94540  eV     1   --> A'             
     e(  7 -  7) =      5.66066  eV     1   --> A'             
     e(  8 -  8) =      6.48079  eV     1   --> A'             
     e(  9 -  9) =      6.67545  eV     1   --> A''            
     e( 10 - 10) =      8.06286  eV     1   --> A'             
     e( 11 - 11) =     10.45109  eV     1   --> A'             
     e( 12 - 12) =     10.50658  eV     1   --> A''            
     e( 13 - 13) =     10.76188  eV     1   --> A'             
     e( 14 - 14) =     14.77867  eV     1   --> A'             
     e( 15 - 15) =     16.21234  eV     1   --> A''            
     e( 16 - 16) =     16.59650  eV     1   --> A'             

 **************************************************************************

 **************************************************************************

                    xk=(   1.00500,  -0.93000,   0.93000  )

     Band symmetry, C_s (m)     point group:

     e(  1 -  1) =     -8.07509  eV     1   --> A'             
     e(  2 -  2) =     -8.07130  eV     1   --> A''            
     e(  3 -  3) =     -8.07082  eV     1   --> A'             
     e(  4 -  4) =     -7.99440  eV     1   --> A''            
     e(  5 -  5) =     -7.99403  eV     1   --> A'             
     e(  6 -  6) =     -5.97535  eV     1   --> A'             
     e(  7 -  7) =      5.97952  eV     1   --> A'             
     e(  8 -  8) =      6.57930  eV     1   --> A'             
     e(  9 -  9) =      6.69104  eV     1   --> A''            
     e( 10 - 10) =      7.84196  eV     1   --> A'             
     e( 11 - 11) =     10.44231  eV     1   --> A'             
     e( 12 - 12) =     10.47688  eV     1   --> A''            
     e( 13 - 13) =     10.62150  eV     1   --> A'             
     e( 14 - 14) =     14.61181  eV     1   --> A'             
     e( 15 - 15) =     16.43912  eV     1   --> A''            
     e( 16 - 16) =     16.71291  eV     1   --> A'             

 **************************************************************************

 **************************************************************************

                    xk=(   1.00333,  -0.95333,   0.95333  )

     Band symmetry, C_s (m)     point group:

     e(  1 -  1) =     -8.07336  eV     1   --> A'             
     e(  2 -  2) =     -8.07165  eV     1   --> A''            
     e(  3 -  3) =     -8.07143  eV     1   --> A'             
     e(  4 -  4) =     -7.99428  eV     1   --> A''            
     e(  5 -  5) =     -7.99411  eV     1   --> A'             
     e(  6 -  6) =     -5.99683  eV     1   --> A'             
     e(  7 -  7) =      6.28780  eV     1   --> A'             
     e(  8 -  8) =      6.65157  eV     1   --> A'             
     e(  9 -  9) =      6.70197  eV     1   --> A''            
     e( 10 - 10) =      7.60294  eV     1   --> A'             
     e( 11 - 11) =     10.43907  eV     1   --> A'             
     e( 12 - 12) =     10.45565  eV     1   --> A''            
     e( 13 - 13) =     10.52002  eV     1   --> A'             
     e( 14 - 14) =     14.48647  eV     1   --> A'             
     e( 15 - 15) =     16.65245  eV     1   --> A''            
     e( 16 - 16) =     16.80567  eV     1   --> A'             

 **************************************************************************

 **************************************************************************

                    xk=(   1.00167,  -0.97667,   0.97667  )

     Band symmetry, C_s (m)     point group:

     e(  1 -  1) =     -8.07229  eV     1   --> A'             
     e(  2 -  3) =     -8.07186  eV     2   --> A'             
     e(  2 -  3) =     -8.07186  eV     2   --> A''            
     e(  4 -  5) =     -7.99420  eV     2   --> A'             
     e(  4 -  5) =     -7.99420  eV     2   --> A''            
     e(  6 -  6) =     -6.00976  eV     1   --> A'             
     e(  7 -  7) =      6.56467  eV     1   --> A'             
     e(  8 -  8) =      6.69575  eV     1   --> A'             
     e(  9 -  9) =      6.70845  eV     1   --> A''            
     e( 10 - 10) =      7.36722  eV     1   --> A'             
     e( 11 - 11) =     10.43856  eV     1   --> A'             
     e( 12 - 12) =     10.44290  eV     1   --> A''            
     e( 13 - 13) =     10.45899  eV     1   --> A'             
     e( 14 - 14) =     14.40860  eV     1   --> A'             
     e( 15 - 15) =     16.81919  eV     1   --> A''            
     e( 16 - 16) =     16.86536  eV     1   --> A'             

 **************************************************************************

 **************************************************************************

                    xk=(   1.00000,  -1.00000,   1.00000  )

     point group T_d (-43m) 
     there are  5 classes
     the character table:

       E     8C3   3C2   6S4   6s_d 
A_1    1.00  1.00  1.00  1.00  1.00
A_2    1.00  1.00  1.00 -1.00 -1.00
E      2.00 -1.00  2.00  0.00  0.00
T_1    3.00  0.00 -1.00  1.00 -1.00
T_2    3.00  0.00 -1.00 -1.00  1.00

     the symmetry operations in each class and the name of the first element:

     E        1
                                                                 
     8C3      5    7    8    6   12    9   10   11
                                                                 
     3C2      2    3    4
                                                                 
     6S4     15   16   20   19   23   24
                                                                 
     6s_d    13   14   17   18   21   22
                                                                 

     Band symmetry, T_d (-43m)  point group:

     e(  1 -  3) =     -8.07193  eV     3   --> T_2  G_15 P_4  
     e(  4 -  5) =     -7.99418  eV     2   --> E    G_12 P_3  
     e(  6 -  6) =     -6.01407  eV     1   --> A_1  G_1  P_1  
     e(  7 -  9) =      6.71060  eV     3   --> T_2  G_15 P_4  
     e( 10 - 10) =      7.23488  eV     1   --> A_1  G_1  P_1  
     e( 11 - 13) =     10.43865  eV     3   --> T_2  G_15 P_4  
     e( 14 - 14) =     14.38217  eV     1   --> A_1  G_1  P_1  
     e( 15 - 16) =     16.88593  eV     2   --> E    G_12 P_3  

 **************************************************************************

     BANDS        :   1m24.47s CPU     47.41s WALL


   This run was terminated on:   2: 3:39  19Nov2025            

=------------------------------------------------------------------------------=
   JOB DONE.
=------------------------------------------------------------------------------=
