
     Program PWSCF v.7.4 starts on 19Nov2025 at  0:46:25 

     This program is part of the open-source Quantum ESPRESSO suite
     for quantum simulation of materials; please cite
         "P. Giannozzi et al., J. Phys.:Condens. Matter 21 395502 (2009);
         "P. Giannozzi et al., J. Phys.:Condens. Matter 29 465901 (2017);
         "P. Giannozzi et al., J. Chem. Phys. 152 154105 (2020);
          URL http://www.quantum-espresso.org", 
     in publications or presentations arising from this work. More details at
     http://www.quantum-espresso.org/quote

     Parallel version (MPI & OpenMP), running on       2 processor cores
     Number of MPI processes:                 1
     Threads/MPI process:                     2

     MPI processes distributed on     1 nodes
     27277 MiB available memory on the printing compute node when the environment starts

     Waiting for input...
     Reading input from standard input
     Message from routine read_cards :
     DEPRECATED: no units specified in ATOMIC_POSITIONS card
     Message from routine read_cards :
     ATOMIC_POSITIONS: units set to alat

     Current dimensions of program PWSCF are:
     Max number of different atomic species (ntypx) = 10
     Max number of k-points (npk) =  40000
     Max angular momentum in pseudopotentials (lmaxx) =  4
     file Ga.pbe-dn-kjpaw_psl.1.0.0.UPF: wavefunction(s)  4S renormalized

     Subspace diagonalization in iterative solution of the eigenvalue problem:
     a serial algorithm will be used


     G-vector sticks info
     --------------------
     sticks:   dense  smooth     PW     G-vecs:    dense   smooth      PW
     Sum         955     955    283                19603    19195    3143

     Using Slab Decomposition



     bravais-lattice index     =            2
     lattice parameter (alat)  =      10.6867  a.u.
     unit-cell volume          =     305.1201 (a.u.)^3
     number of atoms/cell      =            2
     number of atomic types    =            2
     number of electrons       =        18.00
     number of Kohn-Sham states=            9
     kinetic-energy cutoff     =      60.0000  Ry
     charge density cutoff     =     244.0000  Ry
     scf convergence threshold =      1.0E-08
     mixing beta               =       0.7000
     number of iterations used =            8  plain     mixing
     Exchange-correlation= SLA  PW   PBX  PBC
                           (   1   4   3   4   0   0   0)

     celldm(1)=  10.686700  celldm(2)=   0.000000  celldm(3)=   0.000000
     celldm(4)=   0.000000  celldm(5)=   0.000000  celldm(6)=   0.000000

     crystal axes: (cart. coord. in units of alat)
               a(1) = (  -0.500000   0.000000   0.500000 )  
               a(2) = (   0.000000   0.500000   0.500000 )  
               a(3) = (  -0.500000   0.500000   0.000000 )  

     reciprocal axes: (cart. coord. in units 2 pi/alat)
               b(1) = ( -1.000000 -1.000000  1.000000 )  
               b(2) = (  1.000000  1.000000  1.000000 )  
               b(3) = ( -1.000000  1.000000 -1.000000 )  


     PseudoPot. # 1 for Ga read from file:
     ./Ga.pbe-dn-kjpaw_psl.1.0.0.UPF
     MD5 check sum: 50ce49cbf7e0a40ad8623bf41840a268
     Pseudo is Projector augmented-wave + core cor, Zval = 13.0
     Generated using &quot;atomic&quot; code by A. Dal Corso  v.6.3
     Shape of augmentation charge: PSQ
     Using radial grid of 1205 points,  6 beta functions with: 
                l(1) =   0
                l(2) =   0
                l(3) =   1
                l(4) =   1
                l(5) =   2
                l(6) =   2
     Q(r) pseudized with 0 coefficients 


     PseudoPot. # 2 for As read from file:
     ./As.pbe-n-kjpaw_psl.1.0.0.UPF
     MD5 check sum: 21b474db91924651be503153fb2dbf55
     Pseudo is Projector augmented-wave + core cor, Zval =  5.0
     Generated using &quot;atomic&quot; code by A. Dal Corso  v.6.3
     Shape of augmentation charge: PSQ
     Using radial grid of 1209 points,  4 beta functions with: 
                l(1) =   0
                l(2) =   0
                l(3) =   1
                l(4) =   1
     Q(r) pseudized with 0 coefficients 


     atomic species   valence    mass     pseudopotential
     Ga               13.00    69.72300     Ga( 1.00)
     As                5.00    74.92159     As( 1.00)

     24 Sym. Ops. (no inversion) found


                                    s                        frac. trans.

      isym =  1     identity                                     

 cryst.   s( 1) = (     1          0          0      )
                  (     0          1          0      )
                  (     0          0          1      )

 cart.    s( 1) = (  1.0000000  0.0000000  0.0000000 )
                  (  0.0000000  1.0000000  0.0000000 )
                  (  0.0000000  0.0000000  1.0000000 )


      isym =  2     180 deg rotation - cart. axis [0,0,1]        

 cryst.   s( 2) = (     0          1         -1      )
                  (     1          0         -1      )
                  (     0          0         -1      )

 cart.    s( 2) = ( -1.0000000  0.0000000  0.0000000 )
                  (  0.0000000 -1.0000000  0.0000000 )
                  (  0.0000000  0.0000000  1.0000000 )


      isym =  3     180 deg rotation - cart. axis [0,1,0]        

 cryst.   s( 3) = (    -1          0          0      )
                  (    -1          0          1      )
                  (    -1          1          0      )

 cart.    s( 3) = ( -1.0000000  0.0000000  0.0000000 )
                  (  0.0000000  1.0000000  0.0000000 )
                  (  0.0000000  0.0000000 -1.0000000 )


      isym =  4     180 deg rotation - cart. axis [1,0,0]        

 cryst.   s( 4) = (     0         -1          1      )
                  (     0         -1          0      )
                  (     1         -1          0      )

 cart.    s( 4) = (  1.0000000  0.0000000  0.0000000 )
                  (  0.0000000 -1.0000000  0.0000000 )
                  (  0.0000000  0.0000000 -1.0000000 )


      isym =  5     120 deg rotation - cart. axis [-1,-1,-1]     

 cryst.   s( 5) = (    -1          0          1      )
                  (    -1          1          0      )
                  (    -1          0          0      )

 cart.    s( 5) = (  0.0000000  1.0000000  0.0000000 )
                  (  0.0000000  0.0000000  1.0000000 )
                  (  1.0000000  0.0000000  0.0000000 )


      isym =  6     120 deg rotation - cart. axis [-1,1,1]       

 cryst.   s( 6) = (     0          1          0      )
                  (     0          0          1      )
                  (     1          0          0      )

 cart.    s( 6) = (  0.0000000 -1.0000000  0.0000000 )
                  (  0.0000000  0.0000000  1.0000000 )
                  ( -1.0000000  0.0000000  0.0000000 )


      isym =  7     120 deg rotation - cart. axis [1,1,-1]       

 cryst.   s( 7) = (     1          0         -1      )
                  (     0          0         -1      )
                  (     0          1         -1      )

 cart.    s( 7) = (  0.0000000  1.0000000  0.0000000 )
                  (  0.0000000  0.0000000 -1.0000000 )
                  ( -1.0000000  0.0000000  0.0000000 )


      isym =  8     120 deg rotation - cart. axis [1,-1,1]       

 cryst.   s( 8) = (     0         -1          0      )
                  (     1         -1          0      )
                  (     0         -1          1      )

 cart.    s( 8) = (  0.0000000 -1.0000000  0.0000000 )
                  (  0.0000000  0.0000000 -1.0000000 )
                  (  1.0000000  0.0000000  0.0000000 )


      isym =  9     120 deg rotation - cart. axis [1,1,1]        

 cryst.   s( 9) = (     0          0         -1      )
                  (     0          1         -1      )
                  (     1          0         -1      )

 cart.    s( 9) = (  0.0000000  0.0000000  1.0000000 )
                  (  1.0000000  0.0000000  0.0000000 )
                  (  0.0000000  1.0000000  0.0000000 )


      isym = 10     120 deg rotation - cart. axis [-1,1,-1]      

 cryst.   s(10) = (    -1          1          0      )
                  (    -1          0          0      )
                  (    -1          0          1      )

 cart.    s(10) = (  0.0000000  0.0000000  1.0000000 )
                  ( -1.0000000  0.0000000  0.0000000 )
                  (  0.0000000 -1.0000000  0.0000000 )


      isym = 11     120 deg rotation - cart. axis [1,-1,-1]      

 cryst.   s(11) = (     0          0          1      )
                  (     1          0          0      )
                  (     0          1          0      )

 cart.    s(11) = (  0.0000000  0.0000000 -1.0000000 )
                  ( -1.0000000  0.0000000  0.0000000 )
                  (  0.0000000  1.0000000  0.0000000 )


      isym = 12     120 deg rotation - cart. axis [-1,-1,1]      

 cryst.   s(12) = (     1         -1          0      )
                  (     0         -1          1      )
                  (     0         -1          0      )

 cart.    s(12) = (  0.0000000  0.0000000 -1.0000000 )
                  (  1.0000000  0.0000000  0.0000000 )
                  (  0.0000000 -1.0000000  0.0000000 )


      isym = 13     inv. 180 deg rotation - cart. axis [1,1,0]   

 cryst.   s(13) = (     0          1          0      )
                  (     1          0          0      )
                  (     0          0          1      )

 cart.    s(13) = (  0.0000000 -1.0000000  0.0000000 )
                  ( -1.0000000  0.0000000  0.0000000 )
                  (  0.0000000  0.0000000  1.0000000 )


      isym = 14     inv. 180 deg rotation - cart. axis [1,-1,0]  

 cryst.   s(14) = (     1          0         -1      )
                  (     0          1         -1      )
                  (     0          0         -1      )

 cart.    s(14) = (  0.0000000  1.0000000  0.0000000 )
                  (  1.0000000  0.0000000  0.0000000 )
                  (  0.0000000  0.0000000  1.0000000 )


      isym = 15     inv.  90 deg rotation - cart. axis [0,0,-1]  

 cryst.   s(15) = (     0         -1          0      )
                  (     0         -1          1      )
                  (     1         -1          0      )

 cart.    s(15) = (  0.0000000 -1.0000000  0.0000000 )
                  (  1.0000000  0.0000000  0.0000000 )
                  (  0.0000000  0.0000000 -1.0000000 )


      isym = 16     inv.  90 deg rotation - cart. axis [0,0,1]   

 cryst.   s(16) = (    -1          0          1      )
                  (    -1          0          0      )
                  (    -1          1          0      )

 cart.    s(16) = (  0.0000000  1.0000000  0.0000000 )
                  ( -1.0000000  0.0000000  0.0000000 )
                  (  0.0000000  0.0000000 -1.0000000 )


      isym = 17     inv. 180 deg rotation - cart. axis [1,0,1]   

 cryst.   s(17) = (     1          0          0      )
                  (     0          0          1      )
                  (     0          1          0      )

 cart.    s(17) = (  0.0000000  0.0000000 -1.0000000 )
                  (  0.0000000  1.0000000  0.0000000 )
                  ( -1.0000000  0.0000000  0.0000000 )


      isym = 18     inv. 180 deg rotation - cart. axis [-1,0,1]  

 cryst.   s(18) = (    -1          0          0      )
                  (    -1          1          0      )
                  (    -1          0          1      )

 cart.    s(18) = (  0.0000000  0.0000000  1.0000000 )
                  (  0.0000000  1.0000000  0.0000000 )
                  (  1.0000000  0.0000000  0.0000000 )


      isym = 19     inv.  90 deg rotation - cart. axis [0,1,0]   

 cryst.   s(19) = (     0         -1          1      )
                  (     1         -1          0      )
                  (     0         -1          0      )

 cart.    s(19) = (  0.0000000  0.0000000 -1.0000000 )
                  (  0.0000000 -1.0000000  0.0000000 )
                  (  1.0000000  0.0000000  0.0000000 )


      isym = 20     inv.  90 deg rotation - cart. axis [0,-1,0]  

 cryst.   s(20) = (     0          1         -1      )
                  (     0          0         -1      )
                  (     1          0         -1      )

 cart.    s(20) = (  0.0000000  0.0000000  1.0000000 )
                  (  0.0000000 -1.0000000  0.0000000 )
                  ( -1.0000000  0.0000000  0.0000000 )


      isym = 21     inv. 180 deg rotation - cart. axis [0,1,1]   

 cryst.   s(21) = (     1         -1          0      )
                  (     0         -1          0      )
                  (     0         -1          1      )

 cart.    s(21) = (  1.0000000  0.0000000  0.0000000 )
                  (  0.0000000  0.0000000 -1.0000000 )
                  (  0.0000000 -1.0000000  0.0000000 )


      isym = 22     inv. 180 deg rotation - cart. axis [0,1,-1]  

 cryst.   s(22) = (     0          0          1      )
                  (     0          1          0      )
                  (     1          0          0      )

 cart.    s(22) = (  1.0000000  0.0000000  0.0000000 )
                  (  0.0000000  0.0000000  1.0000000 )
                  (  0.0000000  1.0000000  0.0000000 )


      isym = 23     inv.  90 deg rotation - cart. axis [-1,0,0]  

 cryst.   s(23) = (     0          0         -1      )
                  (     1          0         -1      )
                  (     0          1         -1      )

 cart.    s(23) = ( -1.0000000  0.0000000  0.0000000 )
                  (  0.0000000  0.0000000 -1.0000000 )
                  (  0.0000000  1.0000000  0.0000000 )


      isym = 24     inv.  90 deg rotation - cart. axis [1,0,0]   

 cryst.   s(24) = (    -1          1          0      )
                  (    -1          0          1      )
                  (    -1          0          0      )

 cart.    s(24) = ( -1.0000000  0.0000000  0.0000000 )
                  (  0.0000000  0.0000000  1.0000000 )
                  (  0.0000000 -1.0000000  0.0000000 )


     point group T_d (-43m) 
     there are  5 classes
     the character table:

       E     8C3   3C2   6S4   6s_d 
A_1    1.00  1.00  1.00  1.00  1.00
A_2    1.00  1.00  1.00 -1.00 -1.00
E      2.00 -1.00  2.00  0.00  0.00
T_1    3.00  0.00 -1.00  1.00 -1.00
T_2    3.00  0.00 -1.00 -1.00  1.00

     the symmetry operations in each class and the name of the first element:

     E        1
          identity                                               
     8C3      5    7    8    6   12    9   10   11
          120 deg rotation - cart. axis [-1,-1,-1]               
     3C2      2    3    4
          180 deg rotation - cart. axis [0,0,1]                  
     6S4     15   16   20   19   23   24
          inv.  90 deg rotation - cart. axis [0,0,-1]            
     6s_d    13   14   17   18   21   22
          inv. 180 deg rotation - cart. axis [1,1,0]             

   Cartesian axes

     site n.     atom                  positions (alat units)
         1        Ga     tau(   1) = (   0.0000000   0.0000000   0.0000000  )
         2        As     tau(   2) = (   0.2500000   0.2500000   0.2500000  )

   Crystallographic axes

     site n.     atom                  positions (cryst. coord.)
         1        Ga     tau(   1) = (  0.0000000  0.0000000  0.0000000  )
         2        As     tau(   2) = ( -0.2500000  0.7500000 -0.2500000  )

     number of k points=    29
                       cart. coord. in units 2pi/alat
        k(    1) = (   0.0000000   0.0000000   0.0000000), wk =   0.0039062
        k(    2) = (  -0.1250000   0.1250000  -0.1250000), wk =   0.0312500
        k(    3) = (  -0.2500000   0.2500000  -0.2500000), wk =   0.0312500
        k(    4) = (  -0.3750000   0.3750000  -0.3750000), wk =   0.0312500
        k(    5) = (   0.5000000  -0.5000000   0.5000000), wk =   0.0156250
        k(    6) = (   0.0000000   0.2500000   0.0000000), wk =   0.0234375
        k(    7) = (  -0.1250000   0.3750000  -0.1250000), wk =   0.0937500
        k(    8) = (  -0.2500000   0.5000000  -0.2500000), wk =   0.0937500
        k(    9) = (   0.6250000  -0.3750000   0.6250000), wk =   0.0937500
        k(   10) = (   0.5000000  -0.2500000   0.5000000), wk =   0.0937500
        k(   11) = (   0.3750000  -0.1250000   0.3750000), wk =   0.0937500
        k(   12) = (   0.2500000   0.0000000   0.2500000), wk =   0.0468750
        k(   13) = (   0.0000000   0.5000000   0.0000000), wk =   0.0234375
        k(   14) = (  -0.1250000   0.6250000  -0.1250000), wk =   0.0937500
        k(   15) = (   0.7500000  -0.2500000   0.7500000), wk =   0.0937500
        k(   16) = (   0.6250000  -0.1250000   0.6250000), wk =   0.0937500
        k(   17) = (   0.5000000   0.0000000   0.5000000), wk =   0.0468750
        k(   18) = (   0.0000000   0.7500000   0.0000000), wk =   0.0234375
        k(   19) = (   0.8750000  -0.1250000   0.8750000), wk =   0.0937500
        k(   20) = (   0.7500000   0.0000000   0.7500000), wk =   0.0468750
        k(   21) = (   0.0000000  -1.0000000   0.0000000), wk =   0.0117188
        k(   22) = (  -0.2500000   0.5000000   0.0000000), wk =   0.0937500
        k(   23) = (   0.6250000  -0.3750000   0.8750000), wk =   0.1875000
        k(   24) = (   0.5000000  -0.2500000   0.7500000), wk =   0.0937500
        k(   25) = (   0.7500000  -0.2500000   1.0000000), wk =   0.0937500
        k(   26) = (   0.6250000  -0.1250000   0.8750000), wk =   0.1875000
        k(   27) = (   0.5000000   0.0000000   0.7500000), wk =   0.0937500
        k(   28) = (  -0.2500000  -1.0000000   0.0000000), wk =   0.0468750
        k(   29) = (  -0.5000000  -1.0000000   0.0000000), wk =   0.0234375

                       cryst. coord.
        k(    1) = (   0.0000000   0.0000000   0.0000000), wk =   0.0039062
        k(    2) = (   0.0000000   0.0000000   0.1250000), wk =   0.0312500
        k(    3) = (   0.0000000   0.0000000   0.2500000), wk =   0.0312500
        k(    4) = (   0.0000000   0.0000000   0.3750000), wk =   0.0312500
        k(    5) = (   0.0000000   0.0000000  -0.5000000), wk =   0.0156250
        k(    6) = (   0.0000000   0.1250000   0.1250000), wk =   0.0234375
        k(    7) = (   0.0000000   0.1250000   0.2500000), wk =   0.0937500
        k(    8) = (   0.0000000   0.1250000   0.3750000), wk =   0.0937500
        k(    9) = (   0.0000000   0.1250000  -0.5000000), wk =   0.0937500
        k(   10) = (   0.0000000   0.1250000  -0.3750000), wk =   0.0937500
        k(   11) = (   0.0000000   0.1250000  -0.2500000), wk =   0.0937500
        k(   12) = (   0.0000000   0.1250000  -0.1250000), wk =   0.0468750
        k(   13) = (   0.0000000   0.2500000   0.2500000), wk =   0.0234375
        k(   14) = (   0.0000000   0.2500000   0.3750000), wk =   0.0937500
        k(   15) = (   0.0000000   0.2500000  -0.5000000), wk =   0.0937500
        k(   16) = (   0.0000000   0.2500000  -0.3750000), wk =   0.0937500
        k(   17) = (   0.0000000   0.2500000  -0.2500000), wk =   0.0468750
        k(   18) = (   0.0000000   0.3750000   0.3750000), wk =   0.0234375
        k(   19) = (   0.0000000   0.3750000  -0.5000000), wk =   0.0937500
        k(   20) = (   0.0000000   0.3750000  -0.3750000), wk =   0.0468750
        k(   21) = (   0.0000000  -0.5000000  -0.5000000), wk =   0.0117188
        k(   22) = (   0.1250000   0.2500000   0.3750000), wk =   0.0937500
        k(   23) = (   0.1250000   0.2500000  -0.5000000), wk =   0.1875000
        k(   24) = (   0.1250000   0.2500000  -0.3750000), wk =   0.0937500
        k(   25) = (   0.1250000   0.3750000  -0.5000000), wk =   0.0937500
        k(   26) = (   0.1250000   0.3750000  -0.3750000), wk =   0.1875000
        k(   27) = (   0.1250000   0.3750000  -0.2500000), wk =   0.0937500
        k(   28) = (   0.1250000  -0.5000000  -0.3750000), wk =   0.0468750
        k(   29) = (   0.2500000  -0.5000000  -0.2500000), wk =   0.0234375

     Dense  grid:    19603 G-vectors     FFT dimensions: (  40,  40,  40)

     Smooth grid:    19195 G-vectors     FFT dimensions: (  40,  40,  40)

     Dynamical RAM for                 wfc:       0.33 MB

     Dynamical RAM for     wfc (w. buffer):       9.87 MB

     Dynamical RAM for           str. fact:       0.60 MB

     Dynamical RAM for           local pot:       0.00 MB

     Dynamical RAM for          nlocal pot:       0.95 MB

     Dynamical RAM for                qrad:       2.51 MB

     Dynamical RAM for          rho,v,vnew:       2.36 MB

     Dynamical RAM for               rhoin:       0.79 MB

     Dynamical RAM for            rho*nmix:       4.79 MB

     Dynamical RAM for           G-vectors:       1.27 MB

     Dynamical RAM for          h,s,v(r/c):       0.01 MB

     Dynamical RAM for          <psi|beta>:       0.00 MB

     Dynamical RAM for                 psi:       0.66 MB

     Dynamical RAM for                hpsi:       0.66 MB

     Dynamical RAM for                spsi:       0.66 MB

     Dynamical RAM for      wfcinit/wfcrot:       0.66 MB

     Dynamical RAM for           addusdens:      55.94 MB

     Estimated static dynamical RAM per process >      21.68 MB

     Estimated max dynamical RAM per process >      82.40 MB

     Initial potential from superposition of free atoms

     starting charge      17.9968, renormalised to      18.0000
     Starting wfcs are   13 randomized atomic wfcs
     Checking if some PAW data can be deallocated... 

     total cpu time spent up to now is        9.5 secs

     per-process dynamical memory:    35.6 Mb

     Self-consistent Calculation

     iteration #  1     ecut=    60.00 Ry     beta= 0.70
     Davidson diagonalization with overlap

---- Real-time Memory Report at c_bands before calling an iterative solver
           105 MiB given to the printing process from OS
            34 MiB allocation reported by mallinfo(arena+hblkhd)
         27205 MiB available memory on the node where the printing process lives
------------------
     ethr =  1.00E-02,  avg # of iterations =  1.5

     Threshold (ethr) on eigenvalues was too large:
     Diagonalizing with lowered threshold

     Davidson diagonalization with overlap

---- Real-time Memory Report at c_bands before calling an iterative solver
           118 MiB given to the printing process from OS
            50 MiB allocation reported by mallinfo(arena+hblkhd)
         27193 MiB available memory on the node where the printing process lives
------------------
     ethr =  2.36E-04,  avg # of iterations =  5.6

     total cpu time spent up to now is       58.2 secs

     total energy              =    -453.95437795 Ry
     estimated scf accuracy    <       0.04566675 Ry

     iteration #  2     ecut=    60.00 Ry     beta= 0.70
     Davidson diagonalization with overlap

---- Real-time Memory Report at c_bands before calling an iterative solver
           129 MiB given to the printing process from OS
            51 MiB allocation reported by mallinfo(arena+hblkhd)
         27173 MiB available memory on the node where the printing process lives
------------------
     ethr =  2.54E-04,  avg # of iterations =  3.5

     total cpu time spent up to now is       82.6 secs

     total energy              =    -453.96445640 Ry
     estimated scf accuracy    <       0.00645234 Ry

     iteration #  3     ecut=    60.00 Ry     beta= 0.70
     Davidson diagonalization with overlap

---- Real-time Memory Report at c_bands before calling an iterative solver
           130 MiB given to the printing process from OS
            52 MiB allocation reported by mallinfo(arena+hblkhd)
         27181 MiB available memory on the node where the printing process lives
------------------
     ethr =  3.58E-05,  avg # of iterations =  4.3

     total cpu time spent up to now is      110.5 secs

     total energy              =    -453.96666117 Ry
     estimated scf accuracy    <       0.00055779 Ry

     iteration #  4     ecut=    60.00 Ry     beta= 0.70
     Davidson diagonalization with overlap

---- Real-time Memory Report at c_bands before calling an iterative solver
           130 MiB given to the printing process from OS
            53 MiB allocation reported by mallinfo(arena+hblkhd)
         27170 MiB available memory on the node where the printing process lives
------------------
     ethr =  3.10E-06,  avg # of iterations =  7.1

     total cpu time spent up to now is      150.6 secs

     total energy              =    -453.96728239 Ry
     estimated scf accuracy    <       0.00033670 Ry

     iteration #  5     ecut=    60.00 Ry     beta= 0.70
     Davidson diagonalization with overlap

---- Real-time Memory Report at c_bands before calling an iterative solver
           131 MiB given to the printing process from OS
            53 MiB allocation reported by mallinfo(arena+hblkhd)
         27177 MiB available memory on the node where the printing process lives
------------------
     ethr =  1.87E-06,  avg # of iterations =  1.8

     total cpu time spent up to now is      168.0 secs

     total energy              =    -453.96725592 Ry
     estimated scf accuracy    <       0.00025509 Ry

     iteration #  6     ecut=    60.00 Ry     beta= 0.70
     Davidson diagonalization with overlap

---- Real-time Memory Report at c_bands before calling an iterative solver
           132 MiB given to the printing process from OS
            54 MiB allocation reported by mallinfo(arena+hblkhd)
         27176 MiB available memory on the node where the printing process lives
------------------
     ethr =  1.42E-06,  avg # of iterations =  3.0

     total cpu time spent up to now is      190.6 secs

     total energy              =    -453.96728613 Ry
     estimated scf accuracy    <       0.00011569 Ry

     iteration #  7     ecut=    60.00 Ry     beta= 0.70
     Davidson diagonalization with overlap

---- Real-time Memory Report at c_bands before calling an iterative solver
           132 MiB given to the printing process from OS
            54 MiB allocation reported by mallinfo(arena+hblkhd)
         27177 MiB available memory on the node where the printing process lives
------------------
     ethr =  6.43E-07,  avg # of iterations =  1.6

     total cpu time spent up to now is      207.3 secs

     total energy              =    -453.96729334 Ry
     estimated scf accuracy    <       0.00000473 Ry

     iteration #  8     ecut=    60.00 Ry     beta= 0.70
     Davidson diagonalization with overlap

---- Real-time Memory Report at c_bands before calling an iterative solver
           133 MiB given to the printing process from OS
            55 MiB allocation reported by mallinfo(arena+hblkhd)
         27175 MiB available memory on the node where the printing process lives
------------------
     ethr =  2.63E-08,  avg # of iterations = 12.1

     total cpu time spent up to now is      269.4 secs

     total energy              =    -453.96730700 Ry
     estimated scf accuracy    <       0.00000617 Ry

     iteration #  9     ecut=    60.00 Ry     beta= 0.70
     Davidson diagonalization with overlap

---- Real-time Memory Report at c_bands before calling an iterative solver
           133 MiB given to the printing process from OS
            56 MiB allocation reported by mallinfo(arena+hblkhd)
         27177 MiB available memory on the node where the printing process lives
------------------
     ethr =  2.63E-08,  avg # of iterations =  2.4

     total cpu time spent up to now is      289.4 secs

     total energy              =    -453.96730881 Ry
     estimated scf accuracy    <       0.00000084 Ry

     iteration # 10     ecut=    60.00 Ry     beta= 0.70
     Davidson diagonalization with overlap

---- Real-time Memory Report at c_bands before calling an iterative solver
           134 MiB given to the printing process from OS
            56 MiB allocation reported by mallinfo(arena+hblkhd)
         27176 MiB available memory on the node where the printing process lives
------------------
     ethr =  4.67E-09,  avg # of iterations =  4.7

     total cpu time spent up to now is      319.0 secs

     total energy              =    -453.96731083 Ry
     estimated scf accuracy    <       0.00000264 Ry

     iteration # 11     ecut=    60.00 Ry     beta= 0.70
     Davidson diagonalization with overlap

---- Real-time Memory Report at c_bands before calling an iterative solver
           135 MiB given to the printing process from OS
            56 MiB allocation reported by mallinfo(arena+hblkhd)
         27175 MiB available memory on the node where the printing process lives
------------------
     ethr =  4.67E-09,  avg # of iterations =  4.2

     total cpu time spent up to now is      346.5 secs

     total energy              =    -453.96730872 Ry
     estimated scf accuracy    <       0.00000661 Ry

     iteration # 12     ecut=    60.00 Ry     beta= 0.70
     Davidson diagonalization with overlap

---- Real-time Memory Report at c_bands before calling an iterative solver
           135 MiB given to the printing process from OS
            56 MiB allocation reported by mallinfo(arena+hblkhd)
         27175 MiB available memory on the node where the printing process lives
------------------
     ethr =  4.67E-09,  avg # of iterations =  3.1

     total cpu time spent up to now is      369.3 secs

     total energy              =    -453.96731190 Ry
     estimated scf accuracy    <       0.00000269 Ry

     iteration # 13     ecut=    60.00 Ry     beta= 0.70
     Davidson diagonalization with overlap

---- Real-time Memory Report at c_bands before calling an iterative solver
           135 MiB given to the printing process from OS
            56 MiB allocation reported by mallinfo(arena+hblkhd)
         27173 MiB available memory on the node where the printing process lives
------------------
     ethr =  4.67E-09,  avg # of iterations =  4.9

     total cpu time spent up to now is      399.6 secs

     total energy              =    -453.96731229 Ry
     estimated scf accuracy    <       0.00000884 Ry

     iteration # 14     ecut=    60.00 Ry     beta= 0.70
     Davidson diagonalization with overlap

---- Real-time Memory Report at c_bands before calling an iterative solver
           135 MiB given to the printing process from OS
            56 MiB allocation reported by mallinfo(arena+hblkhd)
         27179 MiB available memory on the node where the printing process lives
------------------
     ethr =  4.67E-09,  avg # of iterations =  1.0

     total cpu time spent up to now is      414.2 secs

     total energy              =    -453.96730623 Ry
     estimated scf accuracy    <       0.00000958 Ry

     iteration # 15     ecut=    60.00 Ry     beta= 0.70
     Davidson diagonalization with overlap

---- Real-time Memory Report at c_bands before calling an iterative solver
           135 MiB given to the printing process from OS
            56 MiB allocation reported by mallinfo(arena+hblkhd)
         27180 MiB available memory on the node where the printing process lives
------------------
     ethr =  4.67E-09,  avg # of iterations =  8.4

     total cpu time spent up to now is      460.3 secs

     total energy              =    -453.96730787 Ry
     estimated scf accuracy    <       0.00000010 Ry

     iteration # 16     ecut=    60.00 Ry     beta= 0.70
     Davidson diagonalization with overlap

---- Real-time Memory Report at c_bands before calling an iterative solver
           135 MiB given to the printing process from OS
            56 MiB allocation reported by mallinfo(arena+hblkhd)
         27178 MiB available memory on the node where the printing process lives
------------------
     ethr =  5.30E-10,  avg # of iterations =  6.0

     total cpu time spent up to now is      494.6 secs

     total energy              =    -453.96730799 Ry
     estimated scf accuracy    <       0.00000002 Ry

     iteration # 17     ecut=    60.00 Ry     beta= 0.70
     Davidson diagonalization with overlap

---- Real-time Memory Report at c_bands before calling an iterative solver
           135 MiB given to the printing process from OS
            56 MiB allocation reported by mallinfo(arena+hblkhd)
         27226 MiB available memory on the node where the printing process lives
------------------
     ethr =  1.03E-10,  avg # of iterations = 10.2

     total cpu time spent up to now is      548.7 secs

     total energy              =    -453.96730806 Ry
     estimated scf accuracy    <       0.00000029 Ry

     iteration # 18     ecut=    60.00 Ry     beta= 0.70
     Davidson diagonalization with overlap

---- Real-time Memory Report at c_bands before calling an iterative solver
           135 MiB given to the printing process from OS
            56 MiB allocation reported by mallinfo(arena+hblkhd)
         27159 MiB available memory on the node where the printing process lives
------------------
     ethr =  1.03E-10,  avg # of iterations =  2.0

     total cpu time spent up to now is      567.1 secs

     total energy              =    -453.96730804 Ry
     estimated scf accuracy    <       0.00000033 Ry

     iteration # 19     ecut=    60.00 Ry     beta= 0.70
     Davidson diagonalization with overlap

---- Real-time Memory Report at c_bands before calling an iterative solver
           135 MiB given to the printing process from OS
            56 MiB allocation reported by mallinfo(arena+hblkhd)
         27162 MiB available memory on the node where the printing process lives
------------------
     ethr =  1.03E-10,  avg # of iterations =  1.0

     total cpu time spent up to now is      581.7 secs

     total energy              =    -453.96730804 Ry
     estimated scf accuracy    <       0.00000023 Ry

     iteration # 20     ecut=    60.00 Ry     beta= 0.70
     Davidson diagonalization with overlap

---- Real-time Memory Report at c_bands before calling an iterative solver
           135 MiB given to the printing process from OS
            56 MiB allocation reported by mallinfo(arena+hblkhd)
         27162 MiB available memory on the node where the printing process lives
------------------
     ethr =  1.03E-10,  avg # of iterations =  1.0

     total cpu time spent up to now is      596.3 secs

     total energy              =    -453.96730808 Ry
     estimated scf accuracy    <       0.00000022 Ry

     iteration # 21     ecut=    60.00 Ry     beta= 0.70
     Davidson diagonalization with overlap

---- Real-time Memory Report at c_bands before calling an iterative solver
           135 MiB given to the printing process from OS
            56 MiB allocation reported by mallinfo(arena+hblkhd)
         27165 MiB available memory on the node where the printing process lives
------------------
     ethr =  1.03E-10,  avg # of iterations =  2.6

     total cpu time spent up to now is      617.0 secs

     total energy              =    -453.96730795 Ry
     estimated scf accuracy    <       0.00000035 Ry

     iteration # 22     ecut=    60.00 Ry     beta= 0.70
     Davidson diagonalization with overlap

---- Real-time Memory Report at c_bands before calling an iterative solver
           135 MiB given to the printing process from OS
            56 MiB allocation reported by mallinfo(arena+hblkhd)
         27159 MiB available memory on the node where the printing process lives
------------------
     ethr =  1.03E-10,  avg # of iterations =  9.0

     total cpu time spent up to now is      665.8 secs

     total energy              =    -453.96730800 Ry
     estimated scf accuracy    <       0.00000001 Ry

     iteration # 23     ecut=    60.00 Ry     beta= 0.70
     Davidson diagonalization with overlap

---- Real-time Memory Report at c_bands before calling an iterative solver
           135 MiB given to the printing process from OS
            56 MiB allocation reported by mallinfo(arena+hblkhd)
         27165 MiB available memory on the node where the printing process lives
------------------
     ethr =  5.73E-11,  avg # of iterations =  3.1

     total cpu time spent up to now is      688.0 secs

     End of self-consistent calculation

          k = 0.0000 0.0000 0.0000 (  2421 PWs)   bands (ev):

    -8.0706  -8.0706  -8.0706  -7.9928  -7.9928  -6.0141   6.7106   6.7106
     6.7106

     occupation numbers 
     1.0000   1.0000   1.0000   1.0000   1.0000   1.0000   1.0000   1.0000
     1.0000

          k =-0.1250 0.1250-0.1250 (  2385 PWs)   bands (ev):

    -8.0840  -8.0670  -8.0670  -7.9929  -7.9929  -5.8317   4.7470   6.4742
     6.4742

     occupation numbers 
     1.0000   1.0000   1.0000   1.0000   1.0000   1.0000   1.0000   1.0000
     1.0000

          k =-0.2500 0.2500-0.2500 (  2406 PWs)   bands (ev):

    -8.1133  -8.0593  -8.0593  -7.9921  -7.9921  -5.3228   2.5702   6.0318
     6.0318

     occupation numbers 
     1.0000   1.0000   1.0000   1.0000   1.0000   1.0000   1.0000   1.0000
     1.0000

          k =-0.3750 0.3750-0.3750 (  2406 PWs)   bands (ev):

    -8.1394  -8.0533  -8.0533  -7.9897  -7.9897  -4.6416   0.8236   5.6916
     5.6916

     occupation numbers 
     1.0000   1.0000   1.0000   1.0000   1.0000   1.0000   1.0000   1.0000
     1.0000

          k = 0.5000-0.5000 0.5000 (  2392 PWs)   bands (ev):

    -8.1495  -8.0513  -8.0513  -7.9881  -7.9881  -4.2535   0.0716   5.5695
     5.5695

     occupation numbers 
     1.0000   1.0000   1.0000   1.0000   1.0000   1.0000   1.0000   1.0000
     1.0000

          k = 0.0000 0.2500 0.0000 (  2397 PWs)   bands (ev):

    -8.0917  -8.0636  -8.0636  -7.9957  -7.9907  -5.7711   4.7195   6.0518
     6.0518

     occupation numbers 
     1.0000   1.0000   1.0000   1.0000   1.0000   1.0000   1.0000   1.0000
     1.0000

          k =-0.1250 0.3750-0.1250 (  2403 PWs)   bands (ev):

    -8.1149  -8.0571  -8.0556  -7.9979  -7.9888  -5.3694   3.0779   5.5408
     5.5625

     occupation numbers 
     1.0000   1.0000   1.0000   1.0000   1.0000   1.0000   1.0000   1.0000
     1.0000

          k =-0.2500 0.5000-0.2500 (  2407 PWs)   bands (ev):

    -8.1387  -8.0517  -8.0488  -7.9968  -7.9870  -4.7286   1.3230   4.9417
     5.2711

     occupation numbers 
     1.0000   1.0000   1.0000   1.0000   1.0000   1.0000   1.0000   1.0000
     1.0000

          k = 0.6250-0.3750 0.6250 (  2402 PWs)   bands (ev):

    -8.1517  -8.0492  -8.0464  -7.9927  -7.9873  -4.1796   0.2267   4.5114
     5.2620

     occupation numbers 
     1.0000   1.0000   1.0000   1.0000   1.0000   1.0000   1.0000   1.0000
     1.0000

          k = 0.5000-0.2500 0.5000 (  2403 PWs)   bands (ev):

    -8.1480  -8.0494  -8.0484  -7.9909  -7.9899  -4.3174   0.4808   4.3740
     5.5287

     occupation numbers 
     1.0000   1.0000   1.0000   1.0000   1.0000   1.0000   1.0000   1.0000
     1.0000

          k = 0.3750-0.1250 0.3750 (  2399 PWs)   bands (ev):

    -8.1290  -8.0548  -8.0527  -7.9946  -7.9899  -4.9598   1.8704   4.6037
     5.9892

     occupation numbers 
     1.0000   1.0000   1.0000   1.0000   1.0000   1.0000   1.0000   1.0000
     1.0000

          k = 0.2500 0.0000 0.2500 (  2401 PWs)   bands (ev):

    -8.1030  -8.0630  -8.0595  -7.9949  -7.9911  -5.5396   3.5714   5.3453
     6.4310

     occupation numbers 
     1.0000   1.0000   1.0000   1.0000   1.0000   1.0000   1.0000   1.0000
     1.0000

          k = 0.0000 0.5000 0.0000 (  2413 PWs)   bands (ev):

    -8.1339  -8.0464  -8.0464  -8.0042  -7.9857  -5.0879   2.6196   5.0190
     5.0190

     occupation numbers 
     1.0000   1.0000   1.0000   1.0000   1.0000   1.0000   1.0000   1.0000
     1.0000

          k =-0.1250 0.6250-0.1250 (  2393 PWs)   bands (ev):

    -8.1523  -8.0402  -8.0383  -8.0067  -7.9836  -4.5430   1.4429   4.2934
     4.6891

     occupation numbers 
     1.0000   1.0000   1.0000   1.0000   1.0000   1.0000   1.0000   1.0000
     1.0000

          k = 0.7500-0.2500 0.7500 (  2395 PWs)   bands (ev):

    -8.1613  -8.0404  -8.0351  -8.0032  -7.9846  -3.9645   0.4365   3.4739
     4.6713

     occupation numbers 
     1.0000   1.0000   1.0000   1.0000   1.0000   1.0000   1.0000   1.0000
     1.0000

          k = 0.6250-0.1250 0.6250 (  2381 PWs)   bands (ev):

    -8.1587  -8.0435  -8.0375  -7.9969  -7.9895  -3.8719   0.3086   3.0597
     4.9675

     occupation numbers 
     1.0000   1.0000   1.0000   1.0000   1.0000   1.0000   1.0000   1.0000
     1.0000

          k = 0.5000 0.0000 0.5000 (  2395 PWs)   bands (ev):

    -8.1465  -8.0474  -8.0452  -7.9941  -7.9918  -4.3773   1.0647   3.3451
     5.4897

     occupation numbers 
     1.0000   1.0000   1.0000   1.0000   1.0000   1.0000   1.0000   1.0000
     1.0000

          k = 0.0000 0.7500 0.0000 (  2397 PWs)   bands (ev):

    -8.1685  -8.0287  -8.0287  -8.0139  -7.9806  -4.1287   0.7977   4.2898
     4.2898

     occupation numbers 
     1.0000   1.0000   1.0000   1.0000   1.0000   1.0000   1.0000   1.0000
     1.0000

          k = 0.8750-0.1250 0.8750 (  2397 PWs)   bands (ev):

    -8.1750  -8.0280  -8.0249  -8.0131  -7.9807  -3.6730   0.1610   3.5966
     4.2041

     occupation numbers 
     1.0000   1.0000   1.0000   1.0000   1.0000   1.0000   1.0000   1.0000
     1.0000

          k = 0.7500 0.0000 0.7500 (  2382 PWs)   bands (ev):

    -8.1698  -8.0350  -8.0281  -8.0062  -7.9850  -3.5513   0.0764   2.8505
     4.4527

     occupation numbers 
     1.0000   1.0000   1.0000   1.0000   1.0000   1.0000   1.0000   1.0000
     1.0000

          k = 0.0000-1.0000 0.0000 (  2402 PWs)   bands (ev):

    -8.1814  -8.0212  -8.0212  -8.0181  -7.9785  -3.5154  -0.1090   4.0339
     4.0339

     occupation numbers 
     1.0000   1.0000   1.0000   1.0000   1.0000   1.0000   1.0000   1.0000
     1.0000

          k =-0.2500 0.5000 0.0000 (  2391 PWs)   bands (ev):

    -8.1355  -8.0500  -8.0472  -8.0005  -7.9869  -4.8940   2.0273   4.3114
     5.4099

     occupation numbers 
     1.0000   1.0000   1.0000   1.0000   1.0000   1.0000   1.0000   1.0000
     1.0000

          k = 0.6250-0.3750 0.8750 (  2400 PWs)   bands (ev):

    -8.1518  -8.0465  -8.0405  -7.9990  -7.9871  -4.2637   0.8177   3.6570
     4.9737

     occupation numbers 
     1.0000   1.0000   1.0000   1.0000   1.0000   1.0000   1.0000   1.0000
     1.0000

          k = 0.5000-0.2500 0.7500 (  2392 PWs)   bands (ev):

    -8.1578  -8.0458  -8.0380  -7.9965  -7.9883  -3.9116   0.2224   3.4830
     4.7719

     occupation numbers 
     1.0000   1.0000   1.0000   1.0000   1.0000   1.0000   1.0000   1.0000
     1.0000

          k = 0.7500-0.2500 1.0000 (  2385 PWs)   bands (ev):

    -8.1644  -8.0364  -8.0308  -8.0080  -7.9831  -4.0148   0.6612   3.6674
     4.2330

     occupation numbers 
     1.0000   1.0000   1.0000   1.0000   1.0000   1.0000   1.0000   1.0000
     1.0000

          k = 0.6250-0.1250 0.8750 (  2389 PWs)   bands (ev):

    -8.1669  -8.0390  -8.0284  -8.0041  -7.9861  -3.6189   0.1750   3.0473
     4.0555

     occupation numbers 
     1.0000   1.0000   1.0000   1.0000   1.0000   1.0000   1.0000   1.0000
     1.0000

          k = 0.5000 0.0000 0.7500 (  2387 PWs)   bands (ev):

    -8.1617  -8.0429  -8.0318  -8.0000  -7.9888  -3.7591   0.3440   2.9041
     4.3972

     occupation numbers 
     1.0000   1.0000   1.0000   1.0000   1.0000   1.0000   1.0000   1.0000
     1.0000

          k =-0.2500-1.0000 0.0000 (  2396 PWs)   bands (ev):

    -8.1752  -8.0300  -8.0245  -8.0106  -7.9821  -3.4864  -0.0228   3.5692
     3.6620

     occupation numbers 
     1.0000   1.0000   1.0000   1.0000   1.0000   1.0000   1.0000   1.0000
     1.0000

          k =-0.5000-1.0000 0.0000 (  2400 PWs)   bands (ev):

    -8.1682  -8.0397  -8.0257  -8.0033  -7.9876  -3.4568   0.0747   3.1771
     3.3634

     occupation numbers 
     1.0000   1.0000   1.0000   1.0000   1.0000   1.0000   1.0000   1.0000
     1.0000

     highest occupied level (ev):     6.7106

!    total energy              =    -453.96730800 Ry
     total all-electron energy =     -8410.099328 Ry
     estimated scf accuracy    <          9.3E-09 Ry

     The total energy is the sum of the following terms:
     one-electron contribution =    -119.12491085 Ry
     hartree contribution      =      75.20094852 Ry
     xc contribution           =     -49.72309139 Ry
     ewald contribution        =     -92.98613404 Ry
     one-center paw contrib.   =    -267.33412024 Ry
      -> PAW hartree energy AE =     150.55596107 Ry
      -> PAW hartree energy PS =    -148.70352119 Ry
      -> PAW xc energy AE      =    -318.06314473 Ry
      -> PAW xc energy PS      =      48.87658461 Ry
      -> total E_H with PAW    =      77.05338840 Ry
      -> total E_XC with PAW   =    -318.90965151 Ry

     convergence has been achieved in  23 iterations

     Writing all to output data dir ./tmp/GaAs.save/ :
     XML data file, charge density, pseudopotentials, collected wavefunctions

     init_run     :     14.09s CPU      8.94s WALL (       1 calls)
     electrons    :   1324.12s CPU    678.50s WALL (       1 calls)

     Called by init_run:
     wfcinit      :     10.16s CPU      5.23s WALL (       1 calls)
     wfcinit:atom :      0.10s CPU      0.05s WALL (      29 calls)
     wfcinit:wfcr :      9.68s CPU      4.99s WALL (      29 calls)
     potinit      :      1.12s CPU      0.92s WALL (       1 calls)
     hinit0       :      2.49s CPU      2.46s WALL (       1 calls)

     Called by electrons:
     c_bands      :   1090.37s CPU    551.02s WALL (      24 calls)
     sum_band     :    203.46s CPU    103.80s WALL (      24 calls)
     v_of_rho     :      3.62s CPU      1.87s WALL (      24 calls)
     v_h          :      0.12s CPU      0.06s WALL (      24 calls)
     v_xc         :      3.50s CPU      1.82s WALL (      24 calls)
     newd         :      6.26s CPU      6.06s WALL (      24 calls)
     PAW_pot      :     20.16s CPU     15.96s WALL (      24 calls)
     mix_rho      :      1.17s CPU      0.60s WALL (      24 calls)

     Called by c_bands:
     init_us_2    :      7.18s CPU      3.56s WALL (    1421 calls)
     cegterg      :   1077.59s CPU    544.65s WALL (     696 calls)

     Called by sum_band:
     sum_band:wei :      0.00s CPU      0.00s WALL (      24 calls)
     sum_band:loo :    192.10s CPU     96.99s WALL (      24 calls)
     sum_band:buf :      0.20s CPU      0.13s WALL (     696 calls)
     sum_band:ini :      3.45s CPU      1.71s WALL (     696 calls)
     sum_band:cal :      1.87s CPU      0.93s WALL (     696 calls)
     sum_band:bec :      0.02s CPU      0.02s WALL (     696 calls)
     addusdens    :     10.48s CPU      6.36s WALL (      24 calls)
                                        0.00s GPU  (      24 calls)
     addusd:skk   :      0.02s CPU      0.01s WALL (      48 calls)
                                        0.00s GPU  (      48 calls)

     Called by *egterg:
     cdiaghg      :      1.62s CPU      0.81s WALL (    3686 calls)
     cegterg:over :      3.18s CPU      1.62s WALL (    3019 calls)
     cegterg:upda :     13.94s CPU      7.05s WALL (    3019 calls)
     cegterg:last :      5.15s CPU      2.56s WALL (    2210 calls)
     h_psi        :   1018.43s CPU    514.82s WALL (    3744 calls)
     s_psi        :      2.78s CPU      1.39s WALL (    3744 calls)
     g_psi        :     13.29s CPU      6.67s WALL (    3019 calls)

     Called by h_psi:
     h_psi:calbec :      9.98s CPU      4.82s WALL (    3744 calls)
     vloc_psi     :    991.39s CPU    501.19s WALL (    3744 calls)
     add_vuspsi   :      2.42s CPU      1.43s WALL (    3744 calls)

     General routines
     calbec       :     11.81s CPU      5.74s WALL (    4440 calls)
     fft          :      2.36s CPU      1.33s WALL (     311 calls)
     ffts         :      0.35s CPU      0.17s WALL (      48 calls)
     fftw         :   1139.91s CPU    576.23s WALL (   50348 calls)
     interpolate  :      0.17s CPU      0.09s WALL (      24 calls)

     Parallel routines

     PAW routines
     PAW_pot      :     20.16s CPU     15.96s WALL (      24 calls)
     PAW_symme    :      0.03s CPU      0.02s WALL (      48 calls)

     PWSCF        :  22m18.85s CPU  11m28.33s WALL


   This run was terminated on:   0:57:53  19Nov2025            

=------------------------------------------------------------------------------=
   JOB DONE.
=------------------------------------------------------------------------------=
