Compiler and run-time data
===============================================================================
RASPA 3.0.5

Random seed: 1130013222

Compiled as a 64-bits application
Compiler: gcc Clang 20.1.5 (https://github.com/conda-forge/clangdev-feedstock ed2721dc1050089017cf02556fe1359353c3b823)
Compile Date = May 21 2025, Compile Time = 00:58:16

2025-10-27 14:18:24.375567206
Simulation started on Mon, Oct 27
The start time was 14:18:00

Hostname:    n008
OS type:     Linux on x86_64
OS release:  6.8.0-83-generic
OS version:  #83-Ubuntu SMP PREEMPT_DYNAMIC Fri Sep  5 21:46:54 UTC 2025


Mutual consistent basic set of units:
===============================================================================

Unit of temperature: 1 [K]
Unit of length:      1e-10 [m]
Unit of time:        1e-12 [s]
Unit of mass:        1.6605402e-27 [kg]
Unit of charge:      1.60217733e-19 [C/particle]


Boltzmann constant (internal units):          0.8314464919307584 [-]
represents conversion from energy (internal units) to temperature (in Kelvin)

Derived units and their conversion factors:
===============================================================================

Unit of energy:                           1.6605402000000002e-23 [J]
Unit of energy:                           10.000008872307538 [J.mol⁻¹]
Unit of velocity:                         100 [m.s⁻¹]
Unit of force:                            1.6605402000000002e-13 [N]
Unit of diffusion:                        1e-08 [m².s⁻¹]
Unit of acceleration:                     1e-08 [m².s⁻¹]
Unit of torque:                           1.6605402000000002e-23 [N.m]
Unit of pressure:                         16605402 [Pa]
Unit of volume:                           1e-30 [m³]
Unit of density:                          1660.5402 [kg.m⁻³]
Unit of dynamic viscosity:                1.6605401999999997e-05 [N.s.m⁻²]
Unit of enthalpy:                         1.6605402000000002e-23 [J]
Unit of polarizability:                   1.5458657349975198e-35 [-]
Unit of Coulomb potential:                167101.08000665612 [K]
Unit of dielectric constant:              1.5458657349975193e-05 [s².C².kg⁻¹.m⁻³]
Unit of dipole moment:                    1.60217733e-29 [C.m]
Unit of Debye:                            4.803206799099162 [C.m]
Unit of electric potential:               0.00010364272224473431 [V]
Unit of electric field:                   1036427.222447343 [V.m⁻¹]
Unit of isothermal compressibility:       6.02213665167516e-08 [Pa⁻¹]
Unit of heat capacity:                    10.000008872307538 [J.mol⁻¹.K⁻¹]
Unit of volumetric expansion coefficient: 1 [K⁻¹]


Internal conversion factors:
===============================================================================

Energy (internal units) to Kelvin:      1.202724284692786 [-]
Kelvin to energy (internal units):      0.8314457542157567 [-]


System definitions
===============================================================================

Temperature:          300 [K]
Beta:                 0.004009077391850886 [-]
Pressure:             1e+06 [Pa]
Helium void fraction: 0.81 [-]

Box:      25.66900   0.00000   0.00000
           0.00000  25.66900   0.00000
           0.00000   0.00000  25.66900
Lengths:  25.66900  25.66900  25.66900
Angles:   90.00000  90.00000  90.00000
Rectangular boundary conditions
Perpendicular widths:   25.66900  25.66900  25.66900




Property measurement settings
===============================================================================




Pseudo-atoms
===============================================================================

  0 - Zn1      framework-atom: true
  1 - O1       framework-atom: true
  2 - O2       framework-atom: true
  3 - C1       framework-atom: true
  4 - C2       framework-atom: true
  5 - C3       framework-atom: true
  6 - H1       framework-atom: true
  7 - C_co2    framework-atom: false
  8 - O_co2    framework-atom: false

  0 - Zn1      mass: 65.37000, charge:  0.00000
  1 - O1       mass: 15.99940, charge:  0.00000
  2 - O2       mass: 15.99940, charge:  0.00000
  3 - C1       mass: 12.01070, charge:  0.00000
  4 - C2       mass: 12.01070, charge:  0.00000
  5 - C3       mass: 12.01070, charge:  0.00000
  6 - H1       mass:  1.00794, charge:  0.00000
  7 - C_co2    mass: 12.00000, charge:  0.65120
  8 - O_co2    mass: 15.99940, charge: -0.32560

  0 - Zn1      polarizability:  0.00000
  1 - O1       polarizability:  0.00000
  2 - O2       polarizability:  0.00000
  3 - C1       polarizability:  0.00000
  4 - C2       polarizability:  0.00000
  5 - C3       polarizability:  0.00000
  6 - H1       polarizability:  0.00000
  7 - C_co2    polarizability:  0.00000
  8 - O_co2    polarizability:  0.00000


Force field status
===============================================================================

Cutoff Framework-Molecule VDW:  12.00000 [Å]
Cutoff Molecule-Molecule VDW:   12.00000 [Å]
Cutoff Coulomb:                 12.00000 [Å]

Overlap-criteria VDW:           1.000000e+05 [K]

Zn1      - Zn1      Lennard-Jones p₀/kʙ:   0.42000 [K], p₁:  2.70000 [Å]
                                  shift:  -0.00022 [K], tailcorrections: false
Zn1      - O1       Lennard-Jones p₀/kʙ:  17.14643 [K], p₁:  2.84000 [Å]
                                  shift:  -0.01205 [K], tailcorrections: false
Zn1      - O2       Lennard-Jones p₀/kʙ:   5.44151 [K], p₁:  2.90500 [Å]
                                  shift:  -0.00438 [K], tailcorrections: false
Zn1      - C1       Lennard-Jones p₀/kʙ:   4.44297 [K], p₁:  3.22000 [Å]
                                  shift:  -0.00663 [K], tailcorrections: false
Zn1      - C2       Lennard-Jones p₀/kʙ:   4.48344 [K], p₁:  3.08500 [Å]
                                  shift:  -0.00518 [K], tailcorrections: false
Zn1      - C3       Lennard-Jones p₀/kʙ:   4.48344 [K], p₁:  3.08500 [Å]
                                  shift:  -0.00518 [K], tailcorrections: false
Zn1      - H1       Lennard-Jones p₀/kʙ:   2.13963 [K], p₁:  2.67000 [Å]
                                  shift:  -0.00104 [K], tailcorrections: false
Zn1      - C_co2    Lennard-Jones p₀/kʙ:   3.43718 [K], p₁:  2.72850 [Å]
                                  shift:  -0.00190 [K], tailcorrections: false
Zn1      - O_co2    Lennard-Jones p₀/kʙ:   5.81489 [K], p₁:  2.86650 [Å]
                                  shift:  -0.00432 [K], tailcorrections: false
O1       - O1       Lennard-Jones p₀/kʙ: 700.00000 [K], p₁:  2.98000 [Å]
                                  shift:  -0.65655 [K], tailcorrections: false
O1       - O2       Lennard-Jones p₀/kʙ: 222.14860 [K], p₁:  3.04500 [Å]
                                  shift:  -0.23715 [K], tailcorrections: false
O1       - C1       Lennard-Jones p₀/kʙ: 181.38357 [K], p₁:  3.36000 [Å]
                                  shift:  -0.34946 [K], tailcorrections: false
O1       - C2       Lennard-Jones p₀/kʙ: 183.03552 [K], p₁:  3.22500 [Å]
                                  shift:  -0.27575 [K], tailcorrections: false
O1       - C3       Lennard-Jones p₀/kʙ: 183.03552 [K], p₁:  3.22500 [Å]
                                  shift:  -0.27575 [K], tailcorrections: false
O1       - H1       Lennard-Jones p₀/kʙ:  87.34987 [K], p₁:  2.81000 [Å]
                                  shift:  -0.05760 [K], tailcorrections: false
O1       - C_co2    Lennard-Jones p₀/kʙ: 140.32213 [K], p₁:  2.86850 [Å]
                                  shift:  -0.10470 [K], tailcorrections: false
O1       - O_co2    Lennard-Jones p₀/kʙ: 237.39187 [K], p₁:  3.00650 [Å]
                                  shift:  -0.23480 [K], tailcorrections: false
O2       - O2       Lennard-Jones p₀/kʙ:  70.50000 [K], p₁:  3.11000 [Å]
                                  shift:  -0.08543 [K], tailcorrections: false
O2       - C1       Lennard-Jones p₀/kʙ:  57.56301 [K], p₁:  3.42500 [Å]
                                  shift:  -0.12441 [K], tailcorrections: false
O2       - C2       Lennard-Jones p₀/kʙ:  58.08726 [K], p₁:  3.29000 [Å]
                                  shift:  -0.09864 [K], tailcorrections: false
O2       - C3       Lennard-Jones p₀/kʙ:  58.08726 [K], p₁:  3.29000 [Å]
                                  shift:  -0.09864 [K], tailcorrections: false
O2       - H1       Lennard-Jones p₀/kʙ:  27.72093 [K], p₁:  2.87500 [Å]
                                  shift:  -0.02097 [K], tailcorrections: false
O2       - C_co2    Lennard-Jones p₀/kʙ:  44.53195 [K], p₁:  2.93350 [Å]
                                  shift:  -0.03801 [K], tailcorrections: false
O2       - O_co2    Lennard-Jones p₀/kʙ:  75.33753 [K], p₁:  3.07150 [Å]
                                  shift:  -0.08472 [K], tailcorrections: false
C1       - C1       Lennard-Jones p₀/kʙ:  47.00000 [K], p₁:  3.74000 [Å]
                                  shift:  -0.17215 [K], tailcorrections: false
C1       - C2       Lennard-Jones p₀/kʙ:  47.42805 [K], p₁:  3.60500 [Å]
                                  shift:  -0.13935 [K], tailcorrections: false
C1       - C3       Lennard-Jones p₀/kʙ:  47.42805 [K], p₁:  3.60500 [Å]
                                  shift:  -0.13935 [K], tailcorrections: false
C1       - H1       Lennard-Jones p₀/kʙ:  22.63405 [K], p₁:  3.19000 [Å]
                                  shift:  -0.03194 [K], tailcorrections: false
C1       - C_co2    Lennard-Jones p₀/kʙ:  36.36018 [K], p₁:  3.24850 [Å]
                                  shift:  -0.05722 [K], tailcorrections: false
C1       - O_co2    Lennard-Jones p₀/kʙ:  61.51284 [K], p₁:  3.38650 [Å]
                                  shift:  -0.12423 [K], tailcorrections: false
C2       - C2       Lennard-Jones p₀/kʙ:  47.86000 [K], p₁:  3.47000 [Å]
                                  shift:  -0.11186 [K], tailcorrections: false
C2       - C3       Lennard-Jones p₀/kʙ:  47.86000 [K], p₁:  3.47000 [Å]
                                  shift:  -0.11186 [K], tailcorrections: false
C2       - H1       Lennard-Jones p₀/kʙ:  22.84018 [K], p₁:  3.05500 [Å]
                                  shift:  -0.02487 [K], tailcorrections: false
C2       - C_co2    Lennard-Jones p₀/kʙ:  36.69133 [K], p₁:  3.11350 [Å]
                                  shift:  -0.04476 [K], tailcorrections: false
C2       - O_co2    Lennard-Jones p₀/kʙ:  62.07306 [K], p₁:  3.25150 [Å]
                                  shift:  -0.09822 [K], tailcorrections: false
C3       - C3       Lennard-Jones p₀/kʙ:  47.86000 [K], p₁:  3.47000 [Å]
                                  shift:  -0.11186 [K], tailcorrections: false
C3       - H1       Lennard-Jones p₀/kʙ:  22.84018 [K], p₁:  3.05500 [Å]
                                  shift:  -0.02487 [K], tailcorrections: false
C3       - C_co2    Lennard-Jones p₀/kʙ:  36.69133 [K], p₁:  3.11350 [Å]
                                  shift:  -0.04476 [K], tailcorrections: false
C3       - O_co2    Lennard-Jones p₀/kʙ:  62.07306 [K], p₁:  3.25150 [Å]
                                  shift:  -0.09822 [K], tailcorrections: false
H1       - H1       Lennard-Jones p₀/kʙ:  10.90000 [K], p₁:  2.64000 [Å]
                                  shift:  -0.00494 [K], tailcorrections: false
H1       - C_co2    Lennard-Jones p₀/kʙ:  17.51017 [K], p₁:  2.69850 [Å]
                                  shift:  -0.00906 [K], tailcorrections: false
H1       - O_co2    Lennard-Jones p₀/kʙ:  29.62307 [K], p₁:  2.83650 [Å]
                                  shift:  -0.02066 [K], tailcorrections: false
C_co2    - C_co2    Lennard-Jones p₀/kʙ:  28.12900 [K], p₁:  2.75700 [Å]
                                  shift:  -0.01655 [K], tailcorrections: false
C_co2    - O_co2    Lennard-Jones p₀/kʙ:  47.58762 [K], p₁:  2.89500 [Å]
                                  shift:  -0.03752 [K], tailcorrections: false
O_co2    - O_co2    Lennard-Jones p₀/kʙ:  80.50700 [K], p₁:  3.03300 [Å]
                                  shift:  -0.08393 [K], tailcorrections: false

Ewald precision: 1e-06
Ewald alpha: 0.26505830360350674
Ewald k-vectors: 7 7 7


Component definitions
===============================================================================

Framework 0 [IRMOF-1]

    Box:      25.66900   0.00000   0.00000
               0.00000  25.66900   0.00000
               0.00000   0.00000  25.66900
    Lengths:  25.66900  25.66900  25.66900
    Angles:   90.00000  90.00000  90.00000
    Perpendicular widths:   25.66900  25.66900  25.66900

    number Of Atoms:                   424 [-]
    mass:                       6158.59424 [amu]
      0: Zn1    position  0.29350  0.20650  0.20650, charge  1.21151
      1: O1     position  0.25000  0.25000  0.25000, charge -0.96731
      2: O2     position  0.28180  0.21820  0.13390, charge -0.48205
      3: C1     position  0.25000  0.25000  0.11050, charge  0.32116
      4: C2     position  0.25000  0.25000  0.05380, charge -0.06436
      5: C3     position  0.28310  0.21690  0.02630, charge -0.02336
      6: H1     position  0.30490  0.19510  0.04480, charge  0.05378
    use charge from: CIF-file
    net charge:                      0.00000 [e]
    smallest charge:                -0.96731 [e]
    largest charge:                  1.21151 [e]
    number of bonds: 0

Component 0 [CO2]

    Type: Adsorbate

    Critical temperature:  304.1282 [K]
    Critical pressure:     7377300 [Pa]
    Acentric factor:       0.22394 [-]

    Mol-fraction:                 1 [-]
    Swappable:                   true

    Mass:                         43.9988 [-]
    Fugacity coefficient:         1 [-]
    Bulk fluid density:           18.668483863168863 [-]
    Compressibility:              0.9448790573888219 [-]
    Excess molecules:             3.500508020131828 [-]

    Number Of Atoms:    3
    CBMC starting bead: 0
      0: O_co2  position  0.00000 -0.00000  1.14900, charge -0.32560
      1: C_co2  position  0.00000 -0.00000  0.00000, charge  0.65120
      2: O_co2  position  0.00000 -0.00000 -1.14900, charge -0.32560
    Diagonalized inertia-vector:      42.24484776 42.24484776 0.00000000
    Translational degrees of freedom: 3
    Rotational degrees of freedom:    2
    Shape of the molecule is: 'Linear'
    Net-charge:        0.00000000 [e]

    Move probabilities:
    Translation:                   0.200000 [-]
    Random translation:            0.000000 [-]
    Rotation:                      0.200000 [-]
    Random rotation:               0.000000 [-]
    Volume change:                 0.000000 [-]
    Reinsertion (CBMC):            0.200000 [-]
    Identity change (CBMC):        0.000000 [-]
    Swap:                          0.000000 [-]
    Swap (CBMC):                   0.400000 [-]
    Swap (CFCMC):                  0.000000 [-]
    Swap (CB/CFCMC):               0.000000 [-]
    Gibbs volume:                  0.000000 [-]
    Gibbs swap (CBMC):             0.000000 [-]
    Gibbs swap (CFCMC):            0.000000 [-]
    Widom:                         0.000000 [-]
    Widom (CFCMC):                 0.000000 [-]
    Widom (CB/CFCMC):              0.000000 [-]
    Parallel tempering:            0.000000 [-]
    Hybrid MC:                     0.000000 [-]

    number of blocking-pockets: 0

    number of bonds: 0





Number of pseudo-atoms
===============================================================================

Component   0 (CO2)
-------------------------------------------------------------------------------
    index   0 (Zn1): 0 atoms
    index   1 (O1): 0 atoms
    index   2 (O2): 0 atoms
    index   3 (C1): 0 atoms
    index   4 (C2): 0 atoms
    index   5 (C3): 0 atoms
    index   6 (H1): 0 atoms
    index   7 (C_co2): 0 atoms
    index   8 (O_co2): 0 atoms

Total number of pseudo-atoms:
-------------------------------------------------------------------------------
    index   0 (Zn1): 0 atoms
    index   1 (O1): 0 atoms
    index   2 (O2): 0 atoms
    index   3 (C1): 0 atoms
    index   4 (C2): 0 atoms
    index   5 (C3): 0 atoms
    index   6 (H1): 0 atoms
    index   7 (C_co2): 0 atoms
    index   8 (O_co2): 0 atoms




Energy status Recomputed from scratch
===============================================================================

Total potential energy/kʙ        0.000000e+00 [K]
    external field VDW/kʙ        0.000000e+00 [K]
    external field Real/kʙ       0.000000e+00 [K]
    framework-molecule VDW/kʙ    0.000000e+00 [K]
    framework-molecule Real/kʙ   0.000000e+00 [K]
    molecule-molecule VDW/kʙ     0.000000e+00 [K]
    molecule-molecule Real/kʙ    0.000000e+00 [K]
    Van der Waals (Tail)/kʙ      0.000000e+00 [K]
    Ewald Fourier/kʙ             0.000000e+00 [K]
    Ewald self/kʙ                0.000000e+00 [K]
    Ewald exclusion/kʙ           0.000000e+00 [K]
    intra VDW/kʙ                 0.000000e+00 [K]
    intra Coulombic/kʙ           0.000000e+00 [K]
    polarization/kʙ              0.000000e+00 [K]
    dU/dlambda VDW/kʙ            0.000000e+00 [K]
    dU/dlambda Real/kʙ           0.000000e+00 [K]
    dU/dlambda Ewald/kʙ          0.000000e+00 [K]





Initialization: Current cycle: 0 out of 100
===============================================================================

Box:      25.66900   0.00000   0.00000
           0.00000  25.66900   0.00000
           0.00000   0.00000  25.66900
Lengths:  25.66900  25.66900  25.66900
Angles:   90.00000  90.00000  90.00000
Rectangular boundary conditions
Perpendicular widths:   25.66900  25.66900  25.66900


net charge:   0.00000000

component   0 (CO2) lambda:  0 occupancy:  1 (1.000000)
    net charge:   0.00000000 [e]

Amount of molecules per component :
-------------------------------------------------------------------------------
Component 0 (CO2)
    absolute adsorption:  3.000000e+00 molecules
                          4.871242e-01 mol/kg-framework
                          2.143288e+01 mg/g-framework
    excess adsorption:   -5.005080e-01 molecules
                         -8.126985e-02 mol/kg-framework
                         -3.575776e+00 mg/g-framework

Total potential energy/kʙ       -3.644379e+03 [K]
-------------------------------------------------------------------------------
    external field VDW/kʙ        0.000000e+00 [K]
    external field Real/kʙ       0.000000e+00 [K]
    framework-molecule VDW/kʙ   -3.582333e+03 [K]
    framework-molecule Real/kʙ   2.653680e+02 [K]
    molecule-molecule VDW/kʙ    -2.128907e+00 [K]
    molecule-molecule Real/kʙ    2.314280e-01 [K]
    Van der Waals (Tail)/kʙ      0.000000e+00 [K]
    Ewald Fourier/kʙ            -1.782493e+02 [K]
    Ewald self/kʙ               -4.768558e+04 [K]
    Ewald exclusion/kʙ           4.753831e+04 [K]
    intra VDW/kʙ                 0.000000e+00 [K]
    intra Coulombic/kʙ           0.000000e+00 [K]
    polarization/kʙ              0.000000e+00 [K]
    dU/dlambda VDW/kʙ            0.000000e+00 [K]
    dU/dlambda Real/kʙ           0.000000e+00 [K]
    dU/dlambda Ewald/kʙ          0.000000e+00 [K]


Initialization: Current cycle: 10 out of 100
===============================================================================

Box:      25.66900   0.00000   0.00000
           0.00000  25.66900   0.00000
           0.00000   0.00000  25.66900
Lengths:  25.66900  25.66900  25.66900
Angles:   90.00000  90.00000  90.00000
Rectangular boundary conditions
Perpendicular widths:   25.66900  25.66900  25.66900


net charge:   0.00000000

component   0 (CO2) lambda:  0 occupancy:  1 (1.000000)
    net charge:   0.00000000 [e]

Amount of molecules per component :
-------------------------------------------------------------------------------
Component 0 (CO2)
    absolute adsorption:  5.800000e+01 molecules
                          9.417734e+00 mol/kg-framework
                          4.143690e+02 mg/g-framework
    excess adsorption:    5.449949e+01 molecules
                          8.849340e+00 mol/kg-framework
                          3.893603e+02 mg/g-framework

Total potential energy/kʙ       -6.995172e+04 [K]
-------------------------------------------------------------------------------
    external field VDW/kʙ        0.000000e+00 [K]
    external field Real/kʙ       0.000000e+00 [K]
    framework-molecule VDW/kʙ   -5.372734e+04 [K]
    framework-molecule Real/kʙ   2.430509e+02 [K]
    molecule-molecule VDW/kʙ    -1.379393e+04 [K]
    molecule-molecule Real/kʙ   -4.985691e+02 [K]
    Van der Waals (Tail)/kʙ      0.000000e+00 [K]
    Ewald Fourier/kʙ             6.722410e+02 [K]
    Ewald self/kʙ               -9.219211e+05 [K]
    Ewald exclusion/kʙ           9.190740e+05 [K]
    intra VDW/kʙ                 0.000000e+00 [K]
    intra Coulombic/kʙ           0.000000e+00 [K]
    polarization/kʙ              0.000000e+00 [K]
    dU/dlambda VDW/kʙ            0.000000e+00 [K]
    dU/dlambda Real/kʙ           0.000000e+00 [K]
    dU/dlambda Ewald/kʙ          0.000000e+00 [K]


Initialization: Current cycle: 20 out of 100
===============================================================================

Box:      25.66900   0.00000   0.00000
           0.00000  25.66900   0.00000
           0.00000   0.00000  25.66900
Lengths:  25.66900  25.66900  25.66900
Angles:   90.00000  90.00000  90.00000
Rectangular boundary conditions
Perpendicular widths:   25.66900  25.66900  25.66900


net charge:   0.00000000

component   0 (CO2) lambda:  0 occupancy:  1 (1.000000)
    net charge:   0.00000000 [e]

Amount of molecules per component :
-------------------------------------------------------------------------------
Component 0 (CO2)
    absolute adsorption:  1.360000e+02 molecules
                          2.208296e+01 mol/kg-framework
                          9.716238e+02 mg/g-framework
    excess adsorption:    1.324995e+02 molecules
                          2.151457e+01 mol/kg-framework
                          9.466152e+02 mg/g-framework

Total potential energy/kʙ       -8.217800e+04 [K]
-------------------------------------------------------------------------------
    external field VDW/kʙ        0.000000e+00 [K]
    external field Real/kʙ       0.000000e+00 [K]
    framework-molecule VDW/kʙ   -8.512103e+04 [K]
    framework-molecule Real/kʙ   2.543576e+03 [K]
    molecule-molecule VDW/kʙ     1.003995e+04 [K]
    molecule-molecule Real/kʙ   -3.321083e+03 [K]
    Van der Waals (Tail)/kʙ      0.000000e+00 [K]
    Ewald Fourier/kʙ             3.567047e+02 [K]
    Ewald self/kʙ               -2.161746e+06 [K]
    Ewald exclusion/kʙ           2.155070e+06 [K]
    intra VDW/kʙ                 0.000000e+00 [K]
    intra Coulombic/kʙ           0.000000e+00 [K]
    polarization/kʙ              0.000000e+00 [K]
    dU/dlambda VDW/kʙ            0.000000e+00 [K]
    dU/dlambda Real/kʙ           0.000000e+00 [K]
    dU/dlambda Ewald/kʙ          0.000000e+00 [K]


Initialization: Current cycle: 30 out of 100
===============================================================================

Box:      25.66900   0.00000   0.00000
           0.00000  25.66900   0.00000
           0.00000   0.00000  25.66900
Lengths:  25.66900  25.66900  25.66900
Angles:   90.00000  90.00000  90.00000
Rectangular boundary conditions
Perpendicular widths:   25.66900  25.66900  25.66900


net charge:   0.00000000

component   0 (CO2) lambda:  0 occupancy:  1 (1.000000)
    net charge:   0.00000000 [e]

Amount of molecules per component :
-------------------------------------------------------------------------------
Component 0 (CO2)
    absolute adsorption:  1.460000e+02 molecules
                          2.370671e+01 mol/kg-framework
                          1.043067e+03 mg/g-framework
    excess adsorption:    1.424995e+02 molecules
                          2.313831e+01 mol/kg-framework
                          1.018058e+03 mg/g-framework

Total potential energy/kʙ       -3.252446e+04 [K]
-------------------------------------------------------------------------------
    external field VDW/kʙ        0.000000e+00 [K]
    external field Real/kʙ       0.000000e+00 [K]
    framework-molecule VDW/kʙ   -1.024567e+05 [K]
    framework-molecule Real/kʙ   3.510634e+03 [K]
    molecule-molecule VDW/kʙ     8.379384e+04 [K]
    molecule-molecule Real/kʙ   -9.550247e+03 [K]
    Van der Waals (Tail)/kʙ      0.000000e+00 [K]
    Ewald Fourier/kʙ            -6.549671e+02 [K]
    Ewald self/kʙ               -2.320698e+06 [K]
    Ewald exclusion/kʙ           2.313531e+06 [K]
    intra VDW/kʙ                 0.000000e+00 [K]
    intra Coulombic/kʙ           0.000000e+00 [K]
    polarization/kʙ              0.000000e+00 [K]
    dU/dlambda VDW/kʙ            0.000000e+00 [K]
    dU/dlambda Real/kʙ           0.000000e+00 [K]
    dU/dlambda Ewald/kʙ          0.000000e+00 [K]


Initialization: Current cycle: 40 out of 100
===============================================================================

Box:      25.66900   0.00000   0.00000
           0.00000  25.66900   0.00000
           0.00000   0.00000  25.66900
Lengths:  25.66900  25.66900  25.66900
Angles:   90.00000  90.00000  90.00000
Rectangular boundary conditions
Perpendicular widths:   25.66900  25.66900  25.66900


net charge:   0.00000000

component   0 (CO2) lambda:  0 occupancy:  1 (1.000000)
    net charge:   0.00000000 [e]

Amount of molecules per component :
-------------------------------------------------------------------------------
Component 0 (CO2)
    absolute adsorption:  1.490000e+02 molecules
                          2.419383e+01 mol/kg-framework
                          1.064500e+03 mg/g-framework
    excess adsorption:    1.454995e+02 molecules
                          2.362544e+01 mol/kg-framework
                          1.039491e+03 mg/g-framework

Total potential energy/kʙ       -1.215931e+05 [K]
-------------------------------------------------------------------------------
    external field VDW/kʙ        0.000000e+00 [K]
    external field Real/kʙ       0.000000e+00 [K]
    framework-molecule VDW/kʙ   -8.762261e+04 [K]
    framework-molecule Real/kʙ   4.440204e+02 [K]
    molecule-molecule VDW/kʙ    -1.946568e+04 [K]
    molecule-molecule Real/kʙ   -7.604797e+03 [K]
    Van der Waals (Tail)/kʙ      0.000000e+00 [K]
    Ewald Fourier/kʙ            -2.973697e+01 [K]
    Ewald self/kʙ               -2.368384e+06 [K]
    Ewald exclusion/kʙ           2.361069e+06 [K]
    intra VDW/kʙ                 0.000000e+00 [K]
    intra Coulombic/kʙ           0.000000e+00 [K]
    polarization/kʙ              0.000000e+00 [K]
    dU/dlambda VDW/kʙ            0.000000e+00 [K]
    dU/dlambda Real/kʙ           0.000000e+00 [K]
    dU/dlambda Ewald/kʙ          0.000000e+00 [K]


Initialization: Current cycle: 50 out of 100
===============================================================================

Box:      25.66900   0.00000   0.00000
           0.00000  25.66900   0.00000
           0.00000   0.00000  25.66900
Lengths:  25.66900  25.66900  25.66900
Angles:   90.00000  90.00000  90.00000
Rectangular boundary conditions
Perpendicular widths:   25.66900  25.66900  25.66900


net charge:   0.00000000

component   0 (CO2) lambda:  0 occupancy:  1 (1.000000)
    net charge:   0.00000000 [e]

Amount of molecules per component :
-------------------------------------------------------------------------------
Component 0 (CO2)
    absolute adsorption:  1.440000e+02 molecules
                          2.338196e+01 mol/kg-framework
                          1.028778e+03 mg/g-framework
    excess adsorption:    1.404995e+02 molecules
                          2.281357e+01 mol/kg-framework
                          1.003769e+03 mg/g-framework

Total potential energy/kʙ       -7.242717e+04 [K]
-------------------------------------------------------------------------------
    external field VDW/kʙ        0.000000e+00 [K]
    external field Real/kʙ       0.000000e+00 [K]
    framework-molecule VDW/kʙ   -7.197430e+04 [K]
    framework-molecule Real/kʙ  -9.293227e+02 [K]
    molecule-molecule VDW/kʙ     1.616872e+04 [K]
    molecule-molecule Real/kʙ   -8.941867e+03 [K]
    Van der Waals (Tail)/kʙ      0.000000e+00 [K]
    Ewald Fourier/kʙ             3.184366e+02 [K]
    Ewald self/kʙ               -2.288908e+06 [K]
    Ewald exclusion/kʙ           2.281839e+06 [K]
    intra VDW/kʙ                 0.000000e+00 [K]
    intra Coulombic/kʙ           0.000000e+00 [K]
    polarization/kʙ              0.000000e+00 [K]
    dU/dlambda VDW/kʙ            0.000000e+00 [K]
    dU/dlambda Real/kʙ           0.000000e+00 [K]
    dU/dlambda Ewald/kʙ          0.000000e+00 [K]


Initialization: Current cycle: 60 out of 100
===============================================================================

Box:      25.66900   0.00000   0.00000
           0.00000  25.66900   0.00000
           0.00000   0.00000  25.66900
Lengths:  25.66900  25.66900  25.66900
Angles:   90.00000  90.00000  90.00000
Rectangular boundary conditions
Perpendicular widths:   25.66900  25.66900  25.66900


net charge:   0.00000000

component   0 (CO2) lambda:  0 occupancy:  1 (1.000000)
    net charge:   0.00000000 [e]

Amount of molecules per component :
-------------------------------------------------------------------------------
Component 0 (CO2)
    absolute adsorption:  1.460000e+02 molecules
                          2.370671e+01 mol/kg-framework
                          1.043067e+03 mg/g-framework
    excess adsorption:    1.424995e+02 molecules
                          2.313831e+01 mol/kg-framework
                          1.018058e+03 mg/g-framework

Total potential energy/kʙ       -1.010913e+05 [K]
-------------------------------------------------------------------------------
    external field VDW/kʙ        0.000000e+00 [K]
    external field Real/kʙ       0.000000e+00 [K]
    framework-molecule VDW/kʙ   -3.986457e+04 [K]
    framework-molecule Real/kʙ  -8.175221e+02 [K]
    molecule-molecule VDW/kʙ    -3.448829e+04 [K]
    molecule-molecule Real/kʙ   -1.755474e+04 [K]
    Van der Waals (Tail)/kʙ      0.000000e+00 [K]
    Ewald Fourier/kʙ            -1.199211e+03 [K]
    Ewald self/kʙ               -2.320698e+06 [K]
    Ewald exclusion/kʙ           2.313531e+06 [K]
    intra VDW/kʙ                 0.000000e+00 [K]
    intra Coulombic/kʙ           0.000000e+00 [K]
    polarization/kʙ              0.000000e+00 [K]
    dU/dlambda VDW/kʙ            0.000000e+00 [K]
    dU/dlambda Real/kʙ           0.000000e+00 [K]
    dU/dlambda Ewald/kʙ          0.000000e+00 [K]


Initialization: Current cycle: 70 out of 100
===============================================================================

Box:      25.66900   0.00000   0.00000
           0.00000  25.66900   0.00000
           0.00000   0.00000  25.66900
Lengths:  25.66900  25.66900  25.66900
Angles:   90.00000  90.00000  90.00000
Rectangular boundary conditions
Perpendicular widths:   25.66900  25.66900  25.66900


net charge:   0.00000000

component   0 (CO2) lambda:  0 occupancy:  1 (1.000000)
    net charge:   0.00000000 [e]

Amount of molecules per component :
-------------------------------------------------------------------------------
Component 0 (CO2)
    absolute adsorption:  1.490000e+02 molecules
                          2.419383e+01 mol/kg-framework
                          1.064500e+03 mg/g-framework
    excess adsorption:    1.454995e+02 molecules
                          2.362544e+01 mol/kg-framework
                          1.039491e+03 mg/g-framework

Total potential energy/kʙ       -1.559484e+04 [K]
-------------------------------------------------------------------------------
    external field VDW/kʙ        0.000000e+00 [K]
    external field Real/kʙ       0.000000e+00 [K]
    framework-molecule VDW/kʙ   -7.647722e+04 [K]
    framework-molecule Real/kʙ  -4.401724e+02 [K]
    molecule-molecule VDW/kʙ     8.841536e+04 [K]
    molecule-molecule Real/kʙ   -1.919357e+04 [K]
    Van der Waals (Tail)/kʙ      0.000000e+00 [K]
    Ewald Fourier/kʙ            -5.849521e+02 [K]
    Ewald self/kʙ               -2.368384e+06 [K]
    Ewald exclusion/kʙ           2.361069e+06 [K]
    intra VDW/kʙ                 0.000000e+00 [K]
    intra Coulombic/kʙ           0.000000e+00 [K]
    polarization/kʙ              0.000000e+00 [K]
    dU/dlambda VDW/kʙ            0.000000e+00 [K]
    dU/dlambda Real/kʙ           0.000000e+00 [K]
    dU/dlambda Ewald/kʙ          0.000000e+00 [K]


Initialization: Current cycle: 80 out of 100
===============================================================================

Box:      25.66900   0.00000   0.00000
           0.00000  25.66900   0.00000
           0.00000   0.00000  25.66900
Lengths:  25.66900  25.66900  25.66900
Angles:   90.00000  90.00000  90.00000
Rectangular boundary conditions
Perpendicular widths:   25.66900  25.66900  25.66900


net charge:   0.00000000

component   0 (CO2) lambda:  0 occupancy:  1 (1.000000)
    net charge:   0.00000000 [e]

Amount of molecules per component :
-------------------------------------------------------------------------------
Component 0 (CO2)
    absolute adsorption:  1.510000e+02 molecules
                          2.451858e+01 mol/kg-framework
                          1.078788e+03 mg/g-framework
    excess adsorption:    1.474995e+02 molecules
                          2.395019e+01 mol/kg-framework
                          1.053780e+03 mg/g-framework

Total potential energy/kʙ       -8.258828e+04 [K]
-------------------------------------------------------------------------------
    external field VDW/kʙ        0.000000e+00 [K]
    external field Real/kʙ       0.000000e+00 [K]
    framework-molecule VDW/kʙ   -3.396794e+04 [K]
    framework-molecule Real/kʙ  -8.779917e+02 [K]
    molecule-molecule VDW/kʙ    -2.372509e+04 [K]
    molecule-molecule Real/kʙ   -1.694225e+04 [K]
    Van der Waals (Tail)/kʙ      0.000000e+00 [K]
    Ewald Fourier/kʙ             3.374492e+02 [K]
    Ewald self/kʙ               -2.400174e+06 [K]
    Ewald exclusion/kʙ           2.392762e+06 [K]
    intra VDW/kʙ                 0.000000e+00 [K]
    intra Coulombic/kʙ           0.000000e+00 [K]
    polarization/kʙ              0.000000e+00 [K]
    dU/dlambda VDW/kʙ            0.000000e+00 [K]
    dU/dlambda Real/kʙ           0.000000e+00 [K]
    dU/dlambda Ewald/kʙ          0.000000e+00 [K]


Initialization: Current cycle: 90 out of 100
===============================================================================

Box:      25.66900   0.00000   0.00000
           0.00000  25.66900   0.00000
           0.00000   0.00000  25.66900
Lengths:  25.66900  25.66900  25.66900
Angles:   90.00000  90.00000  90.00000
Rectangular boundary conditions
Perpendicular widths:   25.66900  25.66900  25.66900


net charge:   0.00000000

component   0 (CO2) lambda:  0 occupancy:  1 (1.000000)
    net charge:   0.00000000 [e]

Amount of molecules per component :
-------------------------------------------------------------------------------
Component 0 (CO2)
    absolute adsorption:  1.450000e+02 molecules
                          2.354433e+01 mol/kg-framework
                          1.035922e+03 mg/g-framework
    excess adsorption:    1.414995e+02 molecules
                          2.297594e+01 mol/kg-framework
                          1.010914e+03 mg/g-framework

Total potential energy/kʙ       -1.547378e+05 [K]
-------------------------------------------------------------------------------
    external field VDW/kʙ        0.000000e+00 [K]
    external field Real/kʙ       0.000000e+00 [K]
    framework-molecule VDW/kʙ   -8.366534e+04 [K]
    framework-molecule Real/kʙ  -7.691390e+02 [K]
    molecule-molecule VDW/kʙ    -5.354252e+04 [K]
    molecule-molecule Real/kʙ   -9.581791e+03 [K]
    Van der Waals (Tail)/kʙ      0.000000e+00 [K]
    Ewald Fourier/kʙ            -6.110192e+01 [K]
    Ewald self/kʙ               -2.304803e+06 [K]
    Ewald exclusion/kʙ           2.297685e+06 [K]
    intra VDW/kʙ                 0.000000e+00 [K]
    intra Coulombic/kʙ           0.000000e+00 [K]
    polarization/kʙ              0.000000e+00 [K]
    dU/dlambda VDW/kʙ            0.000000e+00 [K]
    dU/dlambda Real/kʙ           0.000000e+00 [K]
    dU/dlambda Ewald/kʙ          0.000000e+00 [K]


Current cycle: 0 out of 500
===============================================================================

Box:      25.66900   0.00000   0.00000  Average:  25.66900   0.00000   0.00000
           0.00000  25.66900   0.00000             0.00000  25.66900   0.00000
           0.00000   0.00000  25.66900             0.00000   0.00000  25.66900
Lengths:  25.66900  25.66900  25.66900  Average:  25.66900  25.66900  25.66900
Angles:   90.00000  90.00000  90.00000  Average:  90.00000  90.00000  90.00000
Rectangular boundary conditions

net charge:   0.00000000

component 0 (CO2) lambda:  0 occupancy:  1 (1.000000)
    net charge:   0.00000000 [e]

Amount of molecules per component :
-------------------------------------------------------------------------------
Component 0 (CO2)
    absolute adsorption: 1.520000e+02 molecules (1.520000e+02 +/- 0.000000e+00)
                         2.468096e+01 mol/kg    (2.468096e+01 +/- 0.000000e+00)
                         1.085932e+03 mg/g      (1.085932e+03 +/- 0.000000e+00)
    excess adsorption:   1.484995e+02 molecules (1.484995e+02 +/- 0.000000e+00)
                         2.411256e+01 mol/kg    (2.411256e+01 +/- 0.000000e+00)
                         1.060924e+03 mg/g      (1.060924e+03 +/- 0.000000e+00)

Total potential energy/kʙ  -1.522717e+05 (-1.522717e+05 +/- 0.000000e+00) [K]
-------------------------------------------------------------------------------
ExternalField-molecule
    Van der Waals/kʙ        0.000000e+00 ( 0.000000e+00 +/- 0.000000e+00) [K]
Framework-molecule
    Van der Waals/kʙ       -6.703059e+04 (-6.703059e+04 +/- 0.000000e+00) [K]
    Van der Waals (Tail)/kʙ 0.000000e+00 ( 0.000000e+00 +/- 0.000000e+00) [K]
    Coulombic Real/kʙ      -3.205536e+02 (-3.205536e+02 +/- 0.000000e+00) [K]
    Coulombic Fourier/kʙ   -8.839342e+03 (-8.839342e+03 +/- 0.000000e+00) [K]
Molecule-molecule
    Van der Waals/kʙ       -5.654211e+04 (-5.654211e+04 +/- 0.000000e+00) [K]
    Van der Waals (Tail)/kʙ 0.000000e+00 ( 0.000000e+00 +/- 0.000000e+00) [K]
    Coulombic Real/kʙ      -1.834890e+04 (-1.834890e+04 +/- 0.000000e+00) [K]
    Coulombic Fourier/kʙ   -1.190260e+03 (-1.190260e+03 +/- 0.000000e+00) [K]
    Molecule Intra/kʙ       0.000000e+00 ( 0.000000e+00 +/- 0.000000e+00) [K]

Current cycle: 10 out of 500
===============================================================================

Box:      25.66900   0.00000   0.00000  Average:  25.66900   0.00000   0.00000
           0.00000  25.66900   0.00000             0.00000  25.66900   0.00000
           0.00000   0.00000  25.66900             0.00000   0.00000  25.66900
Lengths:  25.66900  25.66900  25.66900  Average:  25.66900  25.66900  25.66900
Angles:   90.00000  90.00000  90.00000  Average:  90.00000  90.00000  90.00000
Rectangular boundary conditions

net charge:   0.00000000

component 0 (CO2) lambda:  0 occupancy:  1 (1.000000)
    net charge:   0.00000000 [e]

Amount of molecules per component :
-------------------------------------------------------------------------------
Component 0 (CO2)
    absolute adsorption: 1.510000e+02 molecules (1.531818e+02 +/- 0.000000e+00)
                         2.451858e+01 mol/kg    (2.487285e+01 +/- 0.000000e+00)
                         1.078788e+03 mg/g      (1.094376e+03 +/- 0.000000e+00)
    excess adsorption:   1.474995e+02 molecules (1.496813e+02 +/- 0.000000e+00)
                         2.395019e+01 mol/kg    (2.430446e+01 +/- 0.000000e+00)
                         1.053780e+03 mg/g      (1.069367e+03 +/- 0.000000e+00)

Total potential energy/kʙ  -3.400989e+04 (-9.314082e+04 +/- 0.000000e+00) [K]
-------------------------------------------------------------------------------
ExternalField-molecule
    Van der Waals/kʙ        0.000000e+00 ( 0.000000e+00 +/- 0.000000e+00) [K]
Framework-molecule
    Van der Waals/kʙ       -2.440830e+04 (-4.571944e+04 +/- 0.000000e+00) [K]
    Van der Waals (Tail)/kʙ 0.000000e+00 ( 0.000000e+00 +/- 0.000000e+00) [K]
    Coulombic Real/kʙ      -2.655319e+03 (-1.487936e+03 +/- 0.000000e+00) [K]
    Coulombic Fourier/kʙ   -7.243911e+03 (-8.041626e+03 +/- 0.000000e+00) [K]
Molecule-molecule
    Van der Waals/kʙ        1.350150e+04 (-2.152030e+04 +/- 0.000000e+00) [K]
    Van der Waals (Tail)/kʙ 0.000000e+00 ( 0.000000e+00 +/- 0.000000e+00) [K]
    Coulombic Real/kʙ      -1.159896e+04 (-1.497393e+04 +/- 0.000000e+00) [K]
    Coulombic Fourier/kʙ   -1.604902e+03 (-1.397581e+03 +/- 0.000000e+00) [K]
    Molecule Intra/kʙ       0.000000e+00 ( 0.000000e+00 +/- 0.000000e+00) [K]

Current cycle: 20 out of 500
===============================================================================

Box:      25.66900   0.00000   0.00000  Average:  25.66900   0.00000   0.00000
           0.00000  25.66900   0.00000             0.00000  25.66900   0.00000
           0.00000   0.00000  25.66900             0.00000   0.00000  25.66900
Lengths:  25.66900  25.66900  25.66900  Average:  25.66900  25.66900  25.66900
Angles:   90.00000  90.00000  90.00000  Average:  90.00000  90.00000  90.00000
Rectangular boundary conditions

net charge:   0.00000000

component 0 (CO2) lambda:  0 occupancy:  1 (1.000000)
    net charge:   0.00000000 [e]

Amount of molecules per component :
-------------------------------------------------------------------------------
Component 0 (CO2)
    absolute adsorption: 1.460000e+02 molecules (1.504286e+02 +/- 0.000000e+00)
                         2.370671e+01 mol/kg    (2.442580e+01 +/- 0.000000e+00)
                         1.043067e+03 mg/g      (1.074706e+03 +/- 0.000000e+00)
    excess adsorption:   1.424995e+02 molecules (1.469281e+02 +/- 0.000000e+00)
                         2.313831e+01 mol/kg    (2.385740e+01 +/- 0.000000e+00)
                         1.018058e+03 mg/g      (1.049697e+03 +/- 0.000000e+00)

Total potential energy/kʙ  -8.751949e+04 (-9.126704e+04 +/- 0.000000e+00) [K]
-------------------------------------------------------------------------------
ExternalField-molecule
    Van der Waals/kʙ        0.000000e+00 ( 0.000000e+00 +/- 0.000000e+00) [K]
Framework-molecule
    Van der Waals/kʙ       -7.089623e+04 (-5.411170e+04 +/- 0.000000e+00) [K]
    Van der Waals (Tail)/kʙ 0.000000e+00 ( 0.000000e+00 +/- 0.000000e+00) [K]
    Coulombic Real/kʙ      -2.300013e+03 (-1.758629e+03 +/- 0.000000e+00) [K]
    Coulombic Fourier/kʙ   -7.086814e+03 (-7.723355e+03 +/- 0.000000e+00) [K]
Molecule-molecule
    Van der Waals/kʙ        8.150755e+03 (-1.162995e+04 +/- 0.000000e+00) [K]
    Van der Waals (Tail)/kʙ 0.000000e+00 ( 0.000000e+00 +/- 0.000000e+00) [K]
    Coulombic Real/kʙ      -1.375591e+04 (-1.456792e+04 +/- 0.000000e+00) [K]
    Coulombic Fourier/kʙ   -1.631284e+03 (-1.475482e+03 +/- 0.000000e+00) [K]
    Molecule Intra/kʙ       0.000000e+00 ( 0.000000e+00 +/- 0.000000e+00) [K]

Current cycle: 30 out of 500
===============================================================================

Box:      25.66900   0.00000   0.00000  Average:  25.66900   0.00000   0.00000
           0.00000  25.66900   0.00000             0.00000  25.66900   0.00000
           0.00000   0.00000  25.66900             0.00000   0.00000  25.66900
Lengths:  25.66900  25.66900  25.66900  Average:  25.66900  25.66900  25.66900
Angles:   90.00000  90.00000  90.00000  Average:  90.00000  90.00000  90.00000
Rectangular boundary conditions

net charge:   0.00000000

component 0 (CO2) lambda:  0 occupancy:  1 (1.000000)
    net charge:   0.00000000 [e]

Amount of molecules per component :
-------------------------------------------------------------------------------
Component 0 (CO2)
    absolute adsorption: 1.610000e+02 molecules (1.514516e+02 +/- 0.000000e+00)
                         2.614233e+01 mol/kg    (2.459191e+01 +/- 0.000000e+00)
                         1.150231e+03 mg/g      (1.082015e+03 +/- 0.000000e+00)
    excess adsorption:   1.574995e+02 molecules (1.479511e+02 +/- 0.000000e+00)
                         2.557394e+01 mol/kg    (2.402352e+01 +/- 0.000000e+00)
                         1.125222e+03 mg/g      (1.057006e+03 +/- 0.000000e+00)

Total potential energy/kʙ   6.025688e+04 (-5.338606e+04 +/- 0.000000e+00) [K]
-------------------------------------------------------------------------------
ExternalField-molecule
    Van der Waals/kʙ        0.000000e+00 ( 0.000000e+00 +/- 0.000000e+00) [K]
Framework-molecule
    Van der Waals/kʙ        7.580638e+04 (-2.163218e+04 +/- 0.000000e+00) [K]
    Van der Waals (Tail)/kʙ 0.000000e+00 ( 0.000000e+00 +/- 0.000000e+00) [K]
    Coulombic Real/kʙ      -3.088596e+03 (-2.091120e+03 +/- 0.000000e+00) [K]
    Coulombic Fourier/kʙ   -7.626021e+03 (-7.699022e+03 +/- 0.000000e+00) [K]
Molecule-molecule
    Van der Waals/kʙ        1.100323e+04 (-5.971656e+03 +/- 0.000000e+00) [K]
    Van der Waals (Tail)/kʙ 0.000000e+00 ( 0.000000e+00 +/- 0.000000e+00) [K]
    Coulombic Real/kʙ      -1.448445e+04 (-1.454705e+04 +/- 0.000000e+00) [K]
    Coulombic Fourier/kʙ   -1.353667e+03 (-1.445028e+03 +/- 0.000000e+00) [K]
    Molecule Intra/kʙ       0.000000e+00 ( 0.000000e+00 +/- 0.000000e+00) [K]

Current cycle: 40 out of 500
===============================================================================

Box:      25.66900   0.00000   0.00000  Average:  25.66900   0.00000   0.00000
           0.00000  25.66900   0.00000             0.00000  25.66900   0.00000
           0.00000   0.00000  25.66900             0.00000   0.00000  25.66900
Lengths:  25.66900  25.66900  25.66900  Average:  25.66900  25.66900  25.66900
Angles:   90.00000  90.00000  90.00000  Average:  90.00000  90.00000  90.00000
Rectangular boundary conditions

net charge:   0.00000000

component 0 (CO2) lambda:  0 occupancy:  1 (1.000000)
    net charge:   0.00000000 [e]

Amount of molecules per component :
-------------------------------------------------------------------------------
Component 0 (CO2)
    absolute adsorption: 1.530000e+02 molecules (1.519268e+02 +/- 0.000000e+00)
                         2.484333e+01 mol/kg    (2.466908e+01 +/- 0.000000e+00)
                         1.093077e+03 mg/g      (1.085410e+03 +/- 0.000000e+00)
    excess adsorption:   1.494995e+02 molecules (1.484263e+02 +/- 0.000000e+00)
                         2.427494e+01 mol/kg    (2.410068e+01 +/- 0.000000e+00)
                         1.068068e+03 mg/g      (1.060401e+03 +/- 0.000000e+00)

Total potential energy/kʙ  -6.289726e+04 (-5.528830e+04 +/- 0.000000e+00) [K]
-------------------------------------------------------------------------------
ExternalField-molecule
    Van der Waals/kʙ        0.000000e+00 ( 0.000000e+00 +/- 0.000000e+00) [K]
Framework-molecule
    Van der Waals/kʙ       -5.862377e+04 (-2.903050e+04 +/- 0.000000e+00) [K]
    Van der Waals (Tail)/kʙ 0.000000e+00 ( 0.000000e+00 +/- 0.000000e+00) [K]
    Coulombic Real/kʙ      -1.142889e+02 (-1.695754e+03 +/- 0.000000e+00) [K]
    Coulombic Fourier/kʙ   -7.604986e+03 (-7.680215e+03 +/- 0.000000e+00) [K]
Molecule-molecule
    Van der Waals/kʙ        1.681640e+04 (-1.414045e+03 +/- 0.000000e+00) [K]
    Van der Waals (Tail)/kʙ 0.000000e+00 ( 0.000000e+00 +/- 0.000000e+00) [K]
    Coulombic Real/kʙ      -1.151015e+04 (-1.393967e+04 +/- 0.000000e+00) [K]
    Coulombic Fourier/kʙ   -1.860469e+03 (-1.528116e+03 +/- 0.000000e+00) [K]
    Molecule Intra/kʙ       0.000000e+00 ( 0.000000e+00 +/- 0.000000e+00) [K]

Current cycle: 50 out of 500
===============================================================================

Box:      25.66900   0.00000   0.00000  Average:  25.66900   0.00000   0.00000
           0.00000  25.66900   0.00000             0.00000  25.66900   0.00000
           0.00000   0.00000  25.66900             0.00000   0.00000  25.66900
Lengths:  25.66900  25.66900  25.66900  Average:  25.66900  25.66900  25.66900
Angles:   90.00000  90.00000  90.00000  Average:  90.00000  90.00000  90.00000
Rectangular boundary conditions

net charge:   0.00000000

component 0 (CO2) lambda:  0 occupancy:  1 (1.000000)
    net charge:   0.00000000 [e]

Amount of molecules per component :
-------------------------------------------------------------------------------
Component 0 (CO2)
    absolute adsorption: 1.480000e+02 molecules (1.513137e+02 +/- 0.000000e+00)
                         2.403146e+01 mol/kg    (2.456952e+01 +/- 0.000000e+00)
                         1.057355e+03 mg/g      (1.081030e+03 +/- 0.000000e+00)
    excess adsorption:   1.444995e+02 molecules (1.478132e+02 +/- 0.000000e+00)
                         2.346306e+01 mol/kg    (2.400113e+01 +/- 0.000000e+00)
                         1.032347e+03 mg/g      (1.056021e+03 +/- 0.000000e+00)

Total potential energy/kʙ  -1.538560e+04 (-4.863785e+04 +/- 0.000000e+00) [K]
-------------------------------------------------------------------------------
ExternalField-molecule
    Van der Waals/kʙ        0.000000e+00 ( 0.000000e+00 +/- 0.000000e+00) [K]
Framework-molecule
    Van der Waals/kʙ       -2.286766e+04 (-2.800336e+04 +/- 0.000000e+00) [K]
    Van der Waals (Tail)/kʙ 0.000000e+00 ( 0.000000e+00 +/- 0.000000e+00) [K]
    Coulombic Real/kʙ      -1.091760e+03 (-1.595088e+03 +/- 0.000000e+00) [K]
    Coulombic Fourier/kʙ   -8.445514e+03 (-7.807765e+03 +/- 0.000000e+00) [K]
Molecule-molecule
    Van der Waals/kʙ        3.040477e+04 ( 3.889090e+03 +/- 0.000000e+00) [K]
    Van der Waals (Tail)/kʙ 0.000000e+00 ( 0.000000e+00 +/- 0.000000e+00) [K]
    Coulombic Real/kʙ      -1.165735e+04 (-1.355928e+04 +/- 0.000000e+00) [K]
    Coulombic Fourier/kʙ   -1.728087e+03 (-1.561445e+03 +/- 0.000000e+00) [K]
    Molecule Intra/kʙ       0.000000e+00 ( 0.000000e+00 +/- 0.000000e+00) [K]

Current cycle: 60 out of 500
===============================================================================

Box:      25.66900   0.00000   0.00000  Average:  25.66900   0.00000   0.00000
           0.00000  25.66900   0.00000             0.00000  25.66900   0.00000
           0.00000   0.00000  25.66900             0.00000   0.00000  25.66900
Lengths:  25.66900  25.66900  25.66900  Average:  25.66900  25.66900  25.66900
Angles:   90.00000  90.00000  90.00000  Average:  90.00000  90.00000  90.00000
Rectangular boundary conditions

net charge:   0.00000000

component 0 (CO2) lambda:  0 occupancy:  1 (1.000000)
    net charge:   0.00000000 [e]

Amount of molecules per component :
-------------------------------------------------------------------------------
Component 0 (CO2)
    absolute adsorption: 1.470000e+02 molecules (1.507541e+02 +/- 0.000000e+00)
                         2.386908e+01 mol/kg    (2.447865e+01 +/- 0.000000e+00)
                         1.050211e+03 mg/g      (1.077031e+03 +/- 0.000000e+00)
    excess adsorption:   1.434995e+02 molecules (1.472536e+02 +/- 0.000000e+00)
                         2.330069e+01 mol/kg    (2.391026e+01 +/- 0.000000e+00)
                         1.025202e+03 mg/g      (1.052023e+03 +/- 0.000000e+00)

Total potential energy/kʙ  -1.206228e+05 (-5.892141e+04 +/- 0.000000e+00) [K]
-------------------------------------------------------------------------------
ExternalField-molecule
    Van der Waals/kʙ        0.000000e+00 ( 0.000000e+00 +/- 0.000000e+00) [K]
Framework-molecule
    Van der Waals/kʙ       -9.836668e+04 (-3.805526e+04 +/- 0.000000e+00) [K]
    Van der Waals (Tail)/kʙ 0.000000e+00 ( 0.000000e+00 +/- 0.000000e+00) [K]
    Coulombic Real/kʙ       9.197377e+02 (-1.235827e+03 +/- 0.000000e+00) [K]
    Coulombic Fourier/kʙ   -6.840313e+03 (-7.669557e+03 +/- 0.000000e+00) [K]
Molecule-molecule
    Van der Waals/kʙ       -6.965154e+03 ( 2.338484e+03 +/- 0.000000e+00) [K]
    Van der Waals (Tail)/kʙ 0.000000e+00 ( 0.000000e+00 +/- 0.000000e+00) [K]
    Coulombic Real/kʙ      -7.632633e+03 (-1.271262e+04 +/- 0.000000e+00) [K]
    Coulombic Fourier/kʙ   -1.737728e+03 (-1.586628e+03 +/- 0.000000e+00) [K]
    Molecule Intra/kʙ       0.000000e+00 ( 0.000000e+00 +/- 0.000000e+00) [K]

Current cycle: 70 out of 500
===============================================================================

Box:      25.66900   0.00000   0.00000  Average:  25.66900   0.00000   0.00000
           0.00000  25.66900   0.00000             0.00000  25.66900   0.00000
           0.00000   0.00000  25.66900             0.00000   0.00000  25.66900
Lengths:  25.66900  25.66900  25.66900  Average:  25.66900  25.66900  25.66900
Angles:   90.00000  90.00000  90.00000  Average:  90.00000  90.00000  90.00000
Rectangular boundary conditions

net charge:   0.00000000

component 0 (CO2) lambda:  0 occupancy:  1 (1.000000)
    net charge:   0.00000000 [e]

Amount of molecules per component :
-------------------------------------------------------------------------------
Component 0 (CO2)
    absolute adsorption: 1.420000e+02 molecules (1.495775e+02 +/- 0.000000e+00)
                         2.305721e+01 mol/kg    (2.428760e+01 +/- 0.000000e+00)
                         1.014490e+03 mg/g      (1.068625e+03 +/- 0.000000e+00)
    excess adsorption:   1.384995e+02 molecules (1.460770e+02 +/- 0.000000e+00)
                         2.248882e+01 mol/kg    (2.371920e+01 +/- 0.000000e+00)
                         9.894809e+02 mg/g      (1.043617e+03 +/- 0.000000e+00)

Total potential energy/kʙ  -9.300944e+04 (-6.318242e+04 +/- 0.000000e+00) [K]
-------------------------------------------------------------------------------
ExternalField-molecule
    Van der Waals/kʙ        0.000000e+00 ( 0.000000e+00 +/- 0.000000e+00) [K]
Framework-molecule
    Van der Waals/kʙ       -7.311295e+04 (-4.243747e+04 +/- 0.000000e+00) [K]
    Van der Waals (Tail)/kʙ 0.000000e+00 ( 0.000000e+00 +/- 0.000000e+00) [K]
    Coulombic Real/kʙ       7.927596e+01 (-1.071440e+03 +/- 0.000000e+00) [K]
    Coulombic Fourier/kʙ   -4.861152e+03 (-7.318507e+03 +/- 0.000000e+00) [K]
Molecule-molecule
    Van der Waals/kʙ       -1.608950e+03 ( 1.845054e+03 +/- 0.000000e+00) [K]
    Van der Waals (Tail)/kʙ 0.000000e+00 ( 0.000000e+00 +/- 0.000000e+00) [K]
    Coulombic Real/kʙ      -1.167130e+04 (-1.258246e+04 +/- 0.000000e+00) [K]
    Coulombic Fourier/kʙ   -1.834373e+03 (-1.617596e+03 +/- 0.000000e+00) [K]
    Molecule Intra/kʙ       0.000000e+00 ( 0.000000e+00 +/- 0.000000e+00) [K]

Current cycle: 80 out of 500
===============================================================================

Box:      25.66900   0.00000   0.00000  Average:  25.66900   0.00000   0.00000
           0.00000  25.66900   0.00000             0.00000  25.66900   0.00000
           0.00000   0.00000  25.66900             0.00000   0.00000  25.66900
Lengths:  25.66900  25.66900  25.66900  Average:  25.66900  25.66900  25.66900
Angles:   90.00000  90.00000  90.00000  Average:  90.00000  90.00000  90.00000
Rectangular boundary conditions

net charge:   0.00000000

component 0 (CO2) lambda:  0 occupancy:  1 (1.000000)
    net charge:   0.00000000 [e]

Amount of molecules per component :
-------------------------------------------------------------------------------
Component 0 (CO2)
    absolute adsorption: 1.530000e+02 molecules (1.494198e+02 +/- 0.000000e+00)
                         2.484333e+01 mol/kg    (2.426199e+01 +/- 0.000000e+00)
                         1.093077e+03 mg/g      (1.067498e+03 +/- 0.000000e+00)
    excess adsorption:   1.494995e+02 molecules (1.459192e+02 +/- 0.000000e+00)
                         2.427494e+01 mol/kg    (2.369360e+01 +/- 0.000000e+00)
                         1.068068e+03 mg/g      (1.042490e+03 +/- 0.000000e+00)

Total potential energy/kʙ  -3.308881e+04 (-5.983868e+04 +/- 0.000000e+00) [K]
-------------------------------------------------------------------------------
ExternalField-molecule
    Van der Waals/kʙ        0.000000e+00 ( 0.000000e+00 +/- 0.000000e+00) [K]
Framework-molecule
    Van der Waals/kʙ        3.781846e+03 (-3.730199e+04 +/- 0.000000e+00) [K]
    Van der Waals (Tail)/kʙ 0.000000e+00 ( 0.000000e+00 +/- 0.000000e+00) [K]
    Coulombic Real/kʙ      -1.846373e+03 (-1.157543e+03 +/- 0.000000e+00) [K]
    Coulombic Fourier/kʙ   -6.916094e+03 (-7.273794e+03 +/- 0.000000e+00) [K]
Molecule-molecule
    Van der Waals/kʙ       -9.354175e+03 ( 6.006956e+02 +/- 0.000000e+00) [K]
    Van der Waals (Tail)/kʙ 0.000000e+00 ( 0.000000e+00 +/- 0.000000e+00) [K]
    Coulombic Real/kʙ      -1.618131e+04 (-1.298233e+04 +/- 0.000000e+00) [K]
    Coulombic Fourier/kʙ   -2.572711e+03 (-1.723720e+03 +/- 0.000000e+00) [K]
    Molecule Intra/kʙ       0.000000e+00 ( 0.000000e+00 +/- 0.000000e+00) [K]

Current cycle: 90 out of 500
===============================================================================

Box:      25.66900   0.00000   0.00000  Average:  25.66900   0.00000   0.00000
           0.00000  25.66900   0.00000             0.00000  25.66900   0.00000
           0.00000   0.00000  25.66900             0.00000   0.00000  25.66900
Lengths:  25.66900  25.66900  25.66900  Average:  25.66900  25.66900  25.66900
Angles:   90.00000  90.00000  90.00000  Average:  90.00000  90.00000  90.00000
Rectangular boundary conditions

net charge:   0.00000000

component 0 (CO2) lambda:  0 occupancy:  1 (1.000000)
    net charge:   0.00000000 [e]

Amount of molecules per component :
-------------------------------------------------------------------------------
Component 0 (CO2)
    absolute adsorption: 1.460000e+02 molecules (1.493407e+02 +/- 0.000000e+00)
                         2.370671e+01 mol/kg    (2.424915e+01 +/- 0.000000e+00)
                         1.043067e+03 mg/g      (1.066933e+03 +/- 0.000000e+00)
    excess adsorption:   1.424995e+02 molecules (1.458402e+02 +/- 0.000000e+00)
                         2.313831e+01 mol/kg    (2.368075e+01 +/- 0.000000e+00)
                         1.018058e+03 mg/g      (1.041925e+03 +/- 0.000000e+00)

Total potential energy/kʙ  -8.290090e+04 (-6.214490e+04 +/- 0.000000e+00) [K]
-------------------------------------------------------------------------------
ExternalField-molecule
    Van der Waals/kʙ        0.000000e+00 ( 0.000000e+00 +/- 0.000000e+00) [K]
Framework-molecule
    Van der Waals/kʙ       -7.121138e+04 (-4.069293e+04 +/- 0.000000e+00) [K]
    Van der Waals (Tail)/kʙ 0.000000e+00 ( 0.000000e+00 +/- 0.000000e+00) [K]
    Coulombic Real/kʙ      -4.536391e+02 (-1.087153e+03 +/- 0.000000e+00) [K]
    Coulombic Fourier/kʙ   -7.341527e+03 (-7.280567e+03 +/- 0.000000e+00) [K]
Molecule-molecule
    Van der Waals/kʙ        1.196373e+04 ( 1.736999e+03 +/- 0.000000e+00) [K]
    Van der Waals (Tail)/kʙ 0.000000e+00 ( 0.000000e+00 +/- 0.000000e+00) [K]
    Coulombic Real/kʙ      -1.420937e+04 (-1.310503e+04 +/- 0.000000e+00) [K]
    Coulombic Fourier/kʙ   -1.648717e+03 (-1.716220e+03 +/- 0.000000e+00) [K]
    Molecule Intra/kʙ       0.000000e+00 ( 0.000000e+00 +/- 0.000000e+00) [K]

Current cycle: 100 out of 500
===============================================================================

Box:      25.66900   0.00000   0.00000  Average:  25.66900   0.00000   0.00000
           0.00000  25.66900   0.00000             0.00000  25.66900   0.00000
           0.00000   0.00000  25.66900             0.00000   0.00000  25.66900
Lengths:  25.66900  25.66900  25.66900  Average:  25.66900  25.66900  25.66900
Angles:   90.00000  90.00000  90.00000  Average:  90.00000  90.00000  90.00000
Rectangular boundary conditions

net charge:   0.00000000

component 0 (CO2) lambda:  0 occupancy:  1 (1.000000)
    net charge:   0.00000000 [e]

Amount of molecules per component :
-------------------------------------------------------------------------------
Component 0 (CO2)
    absolute adsorption: 1.440000e+02 molecules (1.490990e+02 +/- 0.000000e+00)
                         2.338196e+01 mol/kg    (2.420991e+01 +/- 0.000000e+00)
                         1.028778e+03 mg/g      (1.065207e+03 +/- 0.000000e+00)
    excess adsorption:   1.404995e+02 molecules (1.455985e+02 +/- 0.000000e+00)
                         2.281357e+01 mol/kg    (2.364152e+01 +/- 0.000000e+00)
                         1.003769e+03 mg/g      (1.040198e+03 +/- 0.000000e+00)

Total potential energy/kʙ  -3.776311e+04 (-5.992838e+04 +/- 0.000000e+00) [K]
-------------------------------------------------------------------------------
ExternalField-molecule
    Van der Waals/kʙ        0.000000e+00 ( 0.000000e+00 +/- 0.000000e+00) [K]
Framework-molecule
    Van der Waals/kʙ       -8.743676e+04 (-4.494237e+04 +/- 0.000000e+00) [K]
    Van der Waals (Tail)/kʙ 0.000000e+00 ( 0.000000e+00 +/- 0.000000e+00) [K]
    Coulombic Real/kʙ      -9.718431e+01 (-9.971557e+02 +/- 0.000000e+00) [K]
    Coulombic Fourier/kʙ   -7.205397e+03 (-7.273734e+03 +/- 0.000000e+00) [K]
Molecule-molecule
    Van der Waals/kʙ        7.134066e+04 ( 8.064605e+03 +/- 0.000000e+00) [K]
    Van der Waals (Tail)/kʙ 0.000000e+00 ( 0.000000e+00 +/- 0.000000e+00) [K]
    Coulombic Real/kʙ      -1.231592e+04 (-1.303329e+04 +/- 0.000000e+00) [K]
    Coulombic Fourier/kʙ   -2.048509e+03 (-1.746428e+03 +/- 0.000000e+00) [K]
    Molecule Intra/kʙ       0.000000e+00 ( 0.000000e+00 +/- 0.000000e+00) [K]

Current cycle: 110 out of 500
===============================================================================

Box:      25.66900   0.00000   0.00000  Average:  25.66900   0.00000   0.00000
           0.00000  25.66900   0.00000             0.00000  25.66900   0.00000
           0.00000   0.00000  25.66900             0.00000   0.00000  25.66900
Lengths:  25.66900  25.66900  25.66900  Average:  25.66900  25.66900  25.66900
Angles:   90.00000  90.00000  90.00000  Average:  90.00000  90.00000  90.00000
Rectangular boundary conditions

net charge:   0.00000000

component 0 (CO2) lambda:  0 occupancy:  1 (1.000000)
    net charge:   0.00000000 [e]

Amount of molecules per component :
-------------------------------------------------------------------------------
Component 0 (CO2)
    absolute adsorption: 1.390000e+02 molecules (1.487477e+02 +/- 0.000000e+00)
                         2.257009e+01 mol/kg    (2.415287e+01 +/- 0.000000e+00)
                         9.930567e+02 mg/g      (1.062697e+03 +/- 0.000000e+00)
    excess adsorption:   1.354995e+02 molecules (1.452472e+02 +/- 0.000000e+00)
                         2.200169e+01 mol/kg    (2.358448e+01 +/- 0.000000e+00)
                         9.680480e+02 mg/g      (1.037689e+03 +/- 0.000000e+00)

Total potential energy/kʙ  -1.245138e+05 (-6.531050e+04 +/- 0.000000e+00) [K]
-------------------------------------------------------------------------------
ExternalField-molecule
    Van der Waals/kʙ        0.000000e+00 ( 0.000000e+00 +/- 0.000000e+00) [K]
Framework-molecule
    Van der Waals/kʙ       -7.262609e+04 (-4.724935e+04 +/- 0.000000e+00) [K]
    Van der Waals (Tail)/kʙ 0.000000e+00 ( 0.000000e+00 +/- 0.000000e+00) [K]
    Coulombic Real/kʙ       1.189446e+03 (-8.149389e+02 +/- 0.000000e+00) [K]
    Coulombic Fourier/kʙ   -7.154984e+03 (-7.263838e+03 +/- 0.000000e+00) [K]
Molecule-molecule
    Van der Waals/kʙ       -3.579087e+04 ( 4.409982e+03 +/- 0.000000e+00) [K]
    Van der Waals (Tail)/kʙ 0.000000e+00 ( 0.000000e+00 +/- 0.000000e+00) [K]
    Coulombic Real/kʙ      -8.785862e+03 (-1.267934e+04 +/- 0.000000e+00) [K]
    Coulombic Fourier/kʙ   -1.345483e+03 (-1.713016e+03 +/- 0.000000e+00) [K]
    Molecule Intra/kʙ       0.000000e+00 ( 0.000000e+00 +/- 0.000000e+00) [K]

Current cycle: 120 out of 500
===============================================================================

Box:      25.66900   0.00000   0.00000  Average:  25.66900   0.00000   0.00000
           0.00000  25.66900   0.00000             0.00000  25.66900   0.00000
           0.00000   0.00000  25.66900             0.00000   0.00000  25.66900
Lengths:  25.66900  25.66900  25.66900  Average:  25.66900  25.66900  25.66900
Angles:   90.00000  90.00000  90.00000  Average:  90.00000  90.00000  90.00000
Rectangular boundary conditions

net charge:   0.00000000

component 0 (CO2) lambda:  0 occupancy:  1 (1.000000)
    net charge:   0.00000000 [e]

Amount of molecules per component :
-------------------------------------------------------------------------------
Component 0 (CO2)
    absolute adsorption: 1.480000e+02 molecules (1.486860e+02 +/- 0.000000e+00)
                         2.403146e+01 mol/kg    (2.414284e+01 +/- 0.000000e+00)
                         1.057355e+03 mg/g      (1.062256e+03 +/- 0.000000e+00)
    excess adsorption:   1.444995e+02 molecules (1.451854e+02 +/- 0.000000e+00)
                         2.346306e+01 mol/kg    (2.357445e+01 +/- 0.000000e+00)
                         1.032347e+03 mg/g      (1.037247e+03 +/- 0.000000e+00)

Total potential energy/kʙ  -1.226642e+05 (-6.972232e+04 +/- 0.000000e+00) [K]
-------------------------------------------------------------------------------
ExternalField-molecule
    Van der Waals/kʙ        0.000000e+00 ( 0.000000e+00 +/- 0.000000e+00) [K]
Framework-molecule
    Van der Waals/kʙ       -1.104277e+05 (-5.210922e+04 +/- 0.000000e+00) [K]
    Van der Waals (Tail)/kʙ 0.000000e+00 ( 0.000000e+00 +/- 0.000000e+00) [K]
    Coulombic Real/kʙ      -2.812027e+01 (-7.544144e+02 +/- 0.000000e+00) [K]
    Coulombic Fourier/kʙ   -6.717934e+03 (-7.221845e+03 +/- 0.000000e+00) [K]
Molecule-molecule
    Van der Waals/kʙ        1.073047e+04 ( 4.896173e+03 +/- 0.000000e+00) [K]
    Van der Waals (Tail)/kʙ 0.000000e+00 ( 0.000000e+00 +/- 0.000000e+00) [K]
    Coulombic Real/kʙ      -1.439690e+04 (-1.281146e+04 +/- 0.000000e+00) [K]
    Coulombic Fourier/kʙ   -1.823990e+03 (-1.721552e+03 +/- 0.000000e+00) [K]
    Molecule Intra/kʙ       0.000000e+00 ( 0.000000e+00 +/- 0.000000e+00) [K]

Current cycle: 130 out of 500
===============================================================================

Box:      25.66900   0.00000   0.00000  Average:  25.66900   0.00000   0.00000
           0.00000  25.66900   0.00000             0.00000  25.66900   0.00000
           0.00000   0.00000  25.66900             0.00000   0.00000  25.66900
Lengths:  25.66900  25.66900  25.66900  Average:  25.66900  25.66900  25.66900
Angles:   90.00000  90.00000  90.00000  Average:  90.00000  90.00000  90.00000
Rectangular boundary conditions

net charge:   0.00000000

component 0 (CO2) lambda:  0 occupancy:  1 (1.000000)
    net charge:   0.00000000 [e]

Amount of molecules per component :
-------------------------------------------------------------------------------
Component 0 (CO2)
    absolute adsorption: 1.500000e+02 molecules (1.488626e+02 +/- 0.000000e+00)
                         2.435621e+01 mol/kg    (2.417152e+01 +/- 0.000000e+00)
                         1.071644e+03 mg/g      (1.063518e+03 +/- 0.000000e+00)
    excess adsorption:   1.464995e+02 molecules (1.453621e+02 +/- 0.000000e+00)
                         2.378781e+01 mol/kg    (2.360313e+01 +/- 0.000000e+00)
                         1.046635e+03 mg/g      (1.038509e+03 +/- 0.000000e+00)

Total potential energy/kʙ  -1.070861e+05 (-7.239116e+04 +/- 0.000000e+00) [K]
-------------------------------------------------------------------------------
ExternalField-molecule
    Van der Waals/kʙ        0.000000e+00 ( 0.000000e+00 +/- 0.000000e+00) [K]
Framework-molecule
    Van der Waals/kʙ       -5.914026e+04 (-5.261144e+04 +/- 0.000000e+00) [K]
    Van der Waals (Tail)/kʙ 0.000000e+00 ( 0.000000e+00 +/- 0.000000e+00) [K]
    Coulombic Real/kʙ      -5.911358e+02 (-7.427516e+02 +/- 0.000000e+00) [K]
    Coulombic Fourier/kʙ   -7.817985e+03 (-7.264427e+03 +/- 0.000000e+00) [K]
Molecule-molecule
    Van der Waals/kʙ       -3.099439e+04 ( 2.332562e+03 +/- 0.000000e+00) [K]
    Van der Waals (Tail)/kʙ 0.000000e+00 ( 0.000000e+00 +/- 0.000000e+00) [K]
    Coulombic Real/kʙ      -7.160519e+03 (-1.240782e+04 +/- 0.000000e+00) [K]
    Coulombic Fourier/kʙ   -1.381785e+03 (-1.697283e+03 +/- 0.000000e+00) [K]
    Molecule Intra/kʙ       0.000000e+00 ( 0.000000e+00 +/- 0.000000e+00) [K]

Current cycle: 140 out of 500
===============================================================================

Box:      25.66900   0.00000   0.00000  Average:  25.66900   0.00000   0.00000
           0.00000  25.66900   0.00000             0.00000  25.66900   0.00000
           0.00000   0.00000  25.66900             0.00000   0.00000  25.66900
Lengths:  25.66900  25.66900  25.66900  Average:  25.66900  25.66900  25.66900
Angles:   90.00000  90.00000  90.00000  Average:  90.00000  90.00000  90.00000
Rectangular boundary conditions

net charge:   0.00000000

component 0 (CO2) lambda:  0 occupancy:  1 (1.000000)
    net charge:   0.00000000 [e]

Amount of molecules per component :
-------------------------------------------------------------------------------
Component 0 (CO2)
    absolute adsorption: 1.480000e+02 molecules (1.487660e+02 +/- 0.000000e+00)
                         2.403146e+01 mol/kg    (2.415583e+01 +/- 0.000000e+00)
                         1.057355e+03 mg/g      (1.062828e+03 +/- 0.000000e+00)
    excess adsorption:   1.444995e+02 molecules (1.452654e+02 +/- 0.000000e+00)
                         2.346306e+01 mol/kg    (2.358744e+01 +/- 0.000000e+00)
                         1.032347e+03 mg/g      (1.037819e+03 +/- 0.000000e+00)

Total potential energy/kʙ  -2.993158e+04 (-6.956052e+04 +/- 0.000000e+00) [K]
-------------------------------------------------------------------------------
ExternalField-molecule
    Van der Waals/kʙ        0.000000e+00 ( 0.000000e+00 +/- 0.000000e+00) [K]
Framework-molecule
    Van der Waals/kʙ        8.585010e+03 (-4.853168e+04 +/- 0.000000e+00) [K]
    Van der Waals (Tail)/kʙ 0.000000e+00 ( 0.000000e+00 +/- 0.000000e+00) [K]
    Coulombic Real/kʙ      -5.003541e+01 (-6.965705e+02 +/- 0.000000e+00) [K]
    Coulombic Fourier/kʙ   -7.907578e+03 (-7.307303e+03 +/- 0.000000e+00) [K]
Molecule-molecule
    Van der Waals/kʙ       -1.691505e+04 ( 1.049388e+03 +/- 0.000000e+00) [K]
    Van der Waals (Tail)/kʙ 0.000000e+00 ( 0.000000e+00 +/- 0.000000e+00) [K]
    Coulombic Real/kʙ      -1.222405e+04 (-1.239557e+04 +/- 0.000000e+00) [K]
    Coulombic Fourier/kʙ   -1.419869e+03 (-1.678789e+03 +/- 0.000000e+00) [K]
    Molecule Intra/kʙ       0.000000e+00 ( 0.000000e+00 +/- 0.000000e+00) [K]

Current cycle: 150 out of 500
===============================================================================

Box:      25.66900   0.00000   0.00000  Average:  25.66900   0.00000   0.00000
           0.00000  25.66900   0.00000             0.00000  25.66900   0.00000
           0.00000   0.00000  25.66900             0.00000   0.00000  25.66900
Lengths:  25.66900  25.66900  25.66900  Average:  25.66900  25.66900  25.66900
Angles:   90.00000  90.00000  90.00000  Average:  90.00000  90.00000  90.00000
Rectangular boundary conditions

net charge:   0.00000000

component 0 (CO2) lambda:  0 occupancy:  1 (1.000000)
    net charge:   0.00000000 [e]

Amount of molecules per component :
-------------------------------------------------------------------------------
Component 0 (CO2)
    absolute adsorption: 1.520000e+02 molecules (1.489272e+02 +/- 0.000000e+00)
                         2.468096e+01 mol/kg    (2.418200e+01 +/- 0.000000e+00)
                         1.085932e+03 mg/g      (1.063979e+03 +/- 0.000000e+00)
    excess adsorption:   1.484995e+02 molecules (1.454266e+02 +/- 0.000000e+00)
                         2.411256e+01 mol/kg    (2.361361e+01 +/- 0.000000e+00)
                         1.060924e+03 mg/g      (1.038971e+03 +/- 0.000000e+00)

Total potential energy/kʙ  -9.608691e+04 (-7.121842e+04 +/- 0.000000e+00) [K]
-------------------------------------------------------------------------------
ExternalField-molecule
    Van der Waals/kʙ        0.000000e+00 ( 0.000000e+00 +/- 0.000000e+00) [K]
Framework-molecule
    Van der Waals/kʙ       -4.377672e+04 (-4.823449e+04 +/- 0.000000e+00) [K]
    Van der Waals (Tail)/kʙ 0.000000e+00 ( 0.000000e+00 +/- 0.000000e+00) [K]
    Coulombic Real/kʙ       2.093091e+03 (-5.222167e+02 +/- 0.000000e+00) [K]
    Coulombic Fourier/kʙ   -8.301628e+03 (-7.369449e+03 +/- 0.000000e+00) [K]
Molecule-molecule
    Van der Waals/kʙ       -2.957524e+04 (-8.646517e+02 +/- 0.000000e+00) [K]
    Van der Waals (Tail)/kʙ 0.000000e+00 ( 0.000000e+00 +/- 0.000000e+00) [K]
    Coulombic Real/kʙ      -1.478670e+04 (-1.254502e+04 +/- 0.000000e+00) [K]
    Coulombic Fourier/kʙ   -1.739713e+03 (-1.682597e+03 +/- 0.000000e+00) [K]
    Molecule Intra/kʙ       0.000000e+00 ( 0.000000e+00 +/- 0.000000e+00) [K]

Current cycle: 160 out of 500
===============================================================================

Box:      25.66900   0.00000   0.00000  Average:  25.66900   0.00000   0.00000
           0.00000  25.66900   0.00000             0.00000  25.66900   0.00000
           0.00000   0.00000  25.66900             0.00000   0.00000  25.66900
Lengths:  25.66900  25.66900  25.66900  Average:  25.66900  25.66900  25.66900
Angles:   90.00000  90.00000  90.00000  Average:  90.00000  90.00000  90.00000
Rectangular boundary conditions

net charge:   0.00000000

component 0 (CO2) lambda:  0 occupancy:  1 (1.000000)
    net charge:   0.00000000 [e]

Amount of molecules per component :
-------------------------------------------------------------------------------
Component 0 (CO2)
    absolute adsorption: 1.470000e+02 molecules (1.490745e+02 +/- 0.000000e+00)
                         2.386908e+01 mol/kg    (2.420594e+01 +/- 0.000000e+00)
                         1.050211e+03 mg/g      (1.065032e+03 +/- 0.000000e+00)
    excess adsorption:   1.434995e+02 molecules (1.455740e+02 +/- 0.000000e+00)
                         2.330069e+01 mol/kg    (2.363754e+01 +/- 0.000000e+00)
                         1.025202e+03 mg/g      (1.040023e+03 +/- 0.000000e+00)

Total potential energy/kʙ  -1.088568e+05 (-7.343245e+04 +/- 0.000000e+00) [K]
-------------------------------------------------------------------------------
ExternalField-molecule
    Van der Waals/kʙ        0.000000e+00 ( 0.000000e+00 +/- 0.000000e+00) [K]
Framework-molecule
    Van der Waals/kʙ       -8.790500e+04 (-5.056805e+04 +/- 0.000000e+00) [K]
    Van der Waals (Tail)/kʙ 0.000000e+00 ( 0.000000e+00 +/- 0.000000e+00) [K]
    Coulombic Real/kʙ      -9.860420e+02 (-5.495005e+02 +/- 0.000000e+00) [K]
    Coulombic Fourier/kʙ   -5.777683e+03 (-7.275815e+03 +/- 0.000000e+00) [K]
Molecule-molecule
    Van der Waals/kʙ       -6.371498e+03 (-1.188584e+03 +/- 0.000000e+00) [K]
    Van der Waals (Tail)/kʙ 0.000000e+00 ( 0.000000e+00 +/- 0.000000e+00) [K]
    Coulombic Real/kʙ      -6.180696e+03 (-1.217065e+04 +/- 0.000000e+00) [K]
    Coulombic Fourier/kʙ   -1.635929e+03 (-1.679852e+03 +/- 0.000000e+00) [K]
    Molecule Intra/kʙ       0.000000e+00 ( 0.000000e+00 +/- 0.000000e+00) [K]

Current cycle: 170 out of 500
===============================================================================

Box:      25.66900   0.00000   0.00000  Average:  25.66900   0.00000   0.00000
           0.00000  25.66900   0.00000             0.00000  25.66900   0.00000
           0.00000   0.00000  25.66900             0.00000   0.00000  25.66900
Lengths:  25.66900  25.66900  25.66900  Average:  25.66900  25.66900  25.66900
Angles:   90.00000  90.00000  90.00000  Average:  90.00000  90.00000  90.00000
Rectangular boundary conditions

net charge:   0.00000000

component 0 (CO2) lambda:  0 occupancy:  1 (1.000000)
    net charge:   0.00000000 [e]

Amount of molecules per component :
-------------------------------------------------------------------------------
Component 0 (CO2)
    absolute adsorption: 1.490000e+02 molecules (1.490643e+02 +/- 0.000000e+00)
                         2.419383e+01 mol/kg    (2.420428e+01 +/- 0.000000e+00)
                         1.064500e+03 mg/g      (1.064959e+03 +/- 0.000000e+00)
    excess adsorption:   1.454995e+02 molecules (1.455638e+02 +/- 0.000000e+00)
                         2.362544e+01 mol/kg    (2.363588e+01 +/- 0.000000e+00)
                         1.039491e+03 mg/g      (1.039951e+03 +/- 0.000000e+00)

Total potential energy/kʙ  -1.594420e+05 (-7.821076e+04 +/- 0.000000e+00) [K]
-------------------------------------------------------------------------------
ExternalField-molecule
    Van der Waals/kʙ        0.000000e+00 ( 0.000000e+00 +/- 0.000000e+00) [K]
Framework-molecule
    Van der Waals/kʙ       -9.719412e+04 (-5.315839e+04 +/- 0.000000e+00) [K]
    Van der Waals (Tail)/kʙ 0.000000e+00 ( 0.000000e+00 +/- 0.000000e+00) [K]
    Coulombic Real/kʙ      -3.969012e+02 (-5.410228e+02 +/- 0.000000e+00) [K]
    Coulombic Fourier/kʙ   -4.584570e+03 (-7.126302e+03 +/- 0.000000e+00) [K]
Molecule-molecule
    Van der Waals/kʙ       -4.388220e+04 (-3.560451e+03 +/- 0.000000e+00) [K]
    Van der Waals (Tail)/kʙ 0.000000e+00 ( 0.000000e+00 +/- 0.000000e+00) [K]
    Coulombic Real/kʙ      -1.120539e+04 (-1.211702e+04 +/- 0.000000e+00) [K]
    Coulombic Fourier/kʙ   -2.178851e+03 (-1.707574e+03 +/- 0.000000e+00) [K]
    Molecule Intra/kʙ       0.000000e+00 ( 0.000000e+00 +/- 0.000000e+00) [K]

Current cycle: 180 out of 500
===============================================================================

Box:      25.66900   0.00000   0.00000  Average:  25.66900   0.00000   0.00000
           0.00000  25.66900   0.00000             0.00000  25.66900   0.00000
           0.00000   0.00000  25.66900             0.00000   0.00000  25.66900
Lengths:  25.66900  25.66900  25.66900  Average:  25.66900  25.66900  25.66900
Angles:   90.00000  90.00000  90.00000  Average:  90.00000  90.00000  90.00000
Rectangular boundary conditions

net charge:   0.00000000

component 0 (CO2) lambda:  0 occupancy:  1 (1.000000)
    net charge:   0.00000000 [e]

Amount of molecules per component :
-------------------------------------------------------------------------------
Component 0 (CO2)
    absolute adsorption: 1.540000e+02 molecules (1.492044e+02 +/- 0.000000e+00)
                         2.500571e+01 mol/kg    (2.422703e+01 +/- 0.000000e+00)
                         1.100221e+03 mg/g      (1.065960e+03 +/- 0.000000e+00)
    excess adsorption:   1.504995e+02 molecules (1.457039e+02 +/- 0.000000e+00)
                         2.443731e+01 mol/kg    (2.365863e+01 +/- 0.000000e+00)
                         1.075212e+03 mg/g      (1.040951e+03 +/- 0.000000e+00)

Total potential energy/kʙ  -1.118082e+05 (-7.997904e+04 +/- 0.000000e+00) [K]
-------------------------------------------------------------------------------
ExternalField-molecule
    Van der Waals/kʙ        0.000000e+00 ( 0.000000e+00 +/- 0.000000e+00) [K]
Framework-molecule
    Van der Waals/kʙ       -8.130518e+04 (-5.463980e+04 +/- 0.000000e+00) [K]
    Van der Waals (Tail)/kʙ 0.000000e+00 ( 0.000000e+00 +/- 0.000000e+00) [K]
    Coulombic Real/kʙ       2.405653e+03 (-3.859346e+02 +/- 0.000000e+00) [K]
    Coulombic Fourier/kʙ   -6.650815e+03 (-7.101276e+03 +/- 0.000000e+00) [K]
Molecule-molecule
    Van der Waals/kʙ       -1.621598e+04 (-4.226532e+03 +/- 0.000000e+00) [K]
    Van der Waals (Tail)/kʙ 0.000000e+00 ( 0.000000e+00 +/- 0.000000e+00) [K]
    Coulombic Real/kʙ      -8.000962e+03 (-1.190039e+04 +/- 0.000000e+00) [K]
    Coulombic Fourier/kʙ   -2.040873e+03 (-1.725116e+03 +/- 0.000000e+00) [K]
    Molecule Intra/kʙ       0.000000e+00 ( 0.000000e+00 +/- 0.000000e+00) [K]

Current cycle: 190 out of 500
===============================================================================

Box:      25.66900   0.00000   0.00000  Average:  25.66900   0.00000   0.00000
           0.00000  25.66900   0.00000             0.00000  25.66900   0.00000
           0.00000   0.00000  25.66900             0.00000   0.00000  25.66900
Lengths:  25.66900  25.66900  25.66900  Average:  25.66900  25.66900  25.66900
Angles:   90.00000  90.00000  90.00000  Average:  90.00000  90.00000  90.00000
Rectangular boundary conditions

net charge:   0.00000000

component 0 (CO2) lambda:  0 occupancy:  1 (1.000000)
    net charge:   0.00000000 [e]

Amount of molecules per component :
-------------------------------------------------------------------------------
Component 0 (CO2)
    absolute adsorption: 1.440000e+02 molecules (1.489843e+02 +/- 0.000000e+00)
                         2.338196e+01 mol/kg    (2.419128e+01 +/- 0.000000e+00)
[...]
                         1.050211e+03 mg/g      (1.067321e+03 +/- 8.105782e+00)
    excess adsorption:   1.434995e+02 molecules (1.458944e+02 +/- 1.134582e+00)
                         2.330069e+01 mol/kg    (2.368956e+01 +/- 1.842274e-01)
                         1.025202e+03 mg/g      (1.042312e+03 +/- 8.105782e+00)

Total potential energy/kʙ  -1.495795e+05 (-9.607339e+04 +/- 3.193250e+04) [K]
-------------------------------------------------------------------------------
ExternalField-molecule
    Van der Waals/kʙ        0.000000e+00 ( 0.000000e+00 +/- 0.000000e+00) [K]
Framework-molecule
    Van der Waals/kʙ       -1.094633e+05 (-6.706732e+04 +/- 2.584369e+04) [K]
    Van der Waals (Tail)/kʙ 0.000000e+00 ( 0.000000e+00 +/- 0.000000e+00) [K]
    Coulombic Real/kʙ      -2.002332e+03 ( 2.144649e+02 +/- 1.142503e+03) [K]
    Coulombic Fourier/kʙ   -7.222784e+03 (-6.545355e+03 +/- 7.967958e+02) [K]
Molecule-molecule
    Van der Waals/kʙ       -1.814254e+04 (-8.463251e+03 +/- 7.715268e+03) [K]
    Van der Waals (Tail)/kʙ 0.000000e+00 ( 0.000000e+00 +/- 0.000000e+00) [K]
    Coulombic Real/kʙ      -1.154753e+04 (-1.246539e+04 +/- 1.262114e+03) [K]
    Coulombic Fourier/kʙ   -1.200968e+03 (-1.746550e+03 +/- 9.029745e+01) [K]
    Molecule Intra/kʙ       0.000000e+00 ( 0.000000e+00 +/- 0.000000e+00) [K]

Current cycle: 480 out of 500
===============================================================================

Box:      25.66900   0.00000   0.00000  Average:  25.66900   0.00000   0.00000
           0.00000  25.66900   0.00000             0.00000  25.66900   0.00000
           0.00000   0.00000  25.66900             0.00000   0.00000  25.66900
Lengths:  25.66900  25.66900  25.66900  Average:  25.66900  25.66900  25.66900
Angles:   90.00000  90.00000  90.00000  Average:  90.00000  90.00000  90.00000
Rectangular boundary conditions

net charge:   0.00000000

component 0 (CO2) lambda:  0 occupancy:  1 (1.000000)
    net charge:   0.00000000 [e]

Amount of molecules per component :
-------------------------------------------------------------------------------
Component 0 (CO2)
    absolute adsorption: 1.540000e+02 molecules (1.494345e+02 +/- 1.101609e+00)
                         2.500571e+01 mol/kg    (2.426439e+01 +/- 1.788735e-01)
                         1.100221e+03 mg/g      (1.067604e+03 +/- 7.870219e+00)
    excess adsorption:   1.504995e+02 molecules (1.459340e+02 +/- 1.101609e+00)
                         2.443731e+01 mol/kg    (2.369599e+01 +/- 1.788735e-01)
                         1.075212e+03 mg/g      (1.042595e+03 +/- 7.870219e+00)

Total potential energy/kʙ  -9.383132e+04 (-9.602764e+04 +/- 3.139474e+04) [K]
-------------------------------------------------------------------------------
ExternalField-molecule
    Van der Waals/kʙ        0.000000e+00 ( 0.000000e+00 +/- 0.000000e+00) [K]
Framework-molecule
    Van der Waals/kʙ       -4.807079e+04 (-6.667963e+04 +/- 2.525130e+04) [K]
    Van der Waals (Tail)/kʙ 0.000000e+00 ( 0.000000e+00 +/- 0.000000e+00) [K]
    Coulombic Real/kʙ      -9.866509e+02 ( 1.899523e+02 +/- 1.146826e+03) [K]
    Coulombic Fourier/kʙ   -7.529550e+03 (-6.565440e+03 +/- 8.014550e+02) [K]
Molecule-molecule
    Van der Waals/kʙ       -1.960851e+04 (-8.690705e+03 +/- 7.877159e+03) [K]
    Van der Waals (Tail)/kʙ 0.000000e+00 ( 0.000000e+00 +/- 0.000000e+00) [K]
    Coulombic Real/kʙ      -1.621763e+04 (-1.254196e+04 +/- 1.308804e+03) [K]
    Coulombic Fourier/kʙ   -1.418190e+03 (-1.739849e+03 +/- 8.004739e+01) [K]
    Molecule Intra/kʙ       0.000000e+00 ( 0.000000e+00 +/- 0.000000e+00) [K]

Current cycle: 490 out of 500
===============================================================================

Box:      25.66900   0.00000   0.00000  Average:  25.66900   0.00000   0.00000
           0.00000  25.66900   0.00000             0.00000  25.66900   0.00000
           0.00000   0.00000  25.66900             0.00000   0.00000  25.66900
Lengths:  25.66900  25.66900  25.66900  Average:  25.66900  25.66900  25.66900
Angles:   90.00000  90.00000  90.00000  Average:  90.00000  90.00000  90.00000
Rectangular boundary conditions

net charge:   0.00000000

component 0 (CO2) lambda:  0 occupancy:  1 (1.000000)
    net charge:   0.00000000 [e]

Amount of molecules per component :
-------------------------------------------------------------------------------
Component 0 (CO2)
    absolute adsorption: 1.570000e+02 molecules (1.494379e+02 +/- 1.098833e+00)
                         2.549283e+01 mol/kg    (2.426493e+01 +/- 1.784227e-01)
                         1.121654e+03 mg/g      (1.067628e+03 +/- 7.850386e+00)
    excess adsorption:   1.534995e+02 molecules (1.459374e+02 +/- 1.098833e+00)
                         2.492444e+01 mol/kg    (2.369654e+01 +/- 1.784227e-01)
                         1.096645e+03 mg/g      (1.042619e+03 +/- 7.850386e+00)

Total potential energy/kʙ  -1.704862e+05 (-9.751681e+04 +/- 3.270687e+04) [K]
-------------------------------------------------------------------------------
ExternalField-molecule
    Van der Waals/kʙ        0.000000e+00 ( 0.000000e+00 +/- 0.000000e+00) [K]
Framework-molecule
    Van der Waals/kʙ       -9.047828e+04 (-6.715561e+04 +/- 2.546565e+04) [K]
    Van der Waals (Tail)/kʙ 0.000000e+00 ( 0.000000e+00 +/- 0.000000e+00) [K]
    Coulombic Real/kʙ      -1.164629e+03 ( 1.628607e+02 +/- 1.154835e+03) [K]
    Coulombic Fourier/kʙ   -8.919490e+03 (-6.612521e+03 +/- 8.249134e+02) [K]
Molecule-molecule
    Van der Waals/kʙ       -5.721788e+04 (-9.661248e+03 +/- 9.390798e+03) [K]
    Van der Waals (Tail)/kʙ 0.000000e+00 ( 0.000000e+00 +/- 0.000000e+00) [K]
    Coulombic Real/kʙ      -1.059511e+04 (-1.250302e+04 +/- 1.274536e+03) [K]
    Coulombic Fourier/kʙ   -2.110866e+03 (-1.747269e+03 +/- 8.724721e+01) [K]
    Molecule Intra/kʙ       0.000000e+00 ( 0.000000e+00 +/- 0.000000e+00) [K]


Energy statistics             |  Energy [K]   | Recomputed [K]|  Drift [K]    |
===============================================================================
Total potential energy/kʙ     | -1.166760e+05 | -1.166760e+05 |  1.604983e-09 |
    external field VDW/kʙ     |  0.000000e+00 |  0.000000e+00 |  0.000000e+00 |
    external field Real/kʙ    |  0.000000e+00 |  0.000000e+00 |  0.000000e+00 |
    framework-molecule VDW/kʙ | -1.107444e+05 | -1.107444e+05 |  1.347650e-09 |
    framework-molecule Real/kʙ| -3.453165e+03 | -3.453165e+03 | -1.039178e-11 |
    molecule-molecule VDW/kʙ  |  1.898278e+04 |  1.898278e+04 | -9.801087e-10 |
    molecule-molecule Real/kʙ | -1.159942e+04 | -1.159942e+04 | -9.844842e-11 |
    Van der Waals (Tail)/kʙ   |  0.000000e+00 |  0.000000e+00 |  0.000000e+00 |
    Ewald Fourier/kʙ          | -2.056665e+03 | -2.056665e+03 | -5.387316e-11 |
    Ewald self/kʙ             | -2.527336e+06 | -2.527336e+06 |  1.120124e-09 |
    Ewald exclusion/kʙ        |  2.519530e+06 |  2.519530e+06 |  2.800311e-10 |
    intra VDW/kʙ              |  0.000000e+00 |  0.000000e+00 |  0.000000e+00 |
    intra Coulombic/kʙ        |  0.000000e+00 |  0.000000e+00 |  0.000000e+00 |
    polarization/kʙ           |  0.000000e+00 |  0.000000e+00 |  0.000000e+00 |
    dU/dlambda VDW/kʙ         |  0.000000e+00 |  0.000000e+00 |  0.000000e+00 |
    dU/dlambda Real/kʙ        |  0.000000e+00 |  0.000000e+00 |  0.000000e+00 |
    dU/dlambda Ewald/kʙ       |  0.000000e+00 |  0.000000e+00 |  0.000000e+00 |
-------------------------------------------------------------------------------


Monte-Carlo moves statistics
===============================================================================

Component 0 [CO2]
    Reinsertion (CBMC)   all:               15002
    Reinsertion (CBMC)   total:             15002
    Reinsertion (CBMC)   constructed:       13420
    Reinsertion (CBMC)   accepted:           2988
    Reinsertion (CBMC)   fraction:       0.199173
    Reinsertion (CBMC)   max-change:     0.000000

    Translation          all:               14928
    Translation          total:              4992       5004       4932
    Translation          constructed:        4970       4985       4913
    Translation          accepted:           2620       2707       2597
    Translation          fraction:       0.524840   0.540967   0.526561
    Translation          max-change:     0.687500   0.666667   0.666667

    Rotation             all:               15012
    Rotation             total:              4986       5003       5023
    Rotation             constructed:        4941       4998       5020
    Rotation             accepted:           2446       3452       3216
    Rotation             fraction:       0.490574   0.689986   0.640255
    Rotation             max-change:     1.000000   0.357143   0.444444

    Swap (CBMC)          all:               29809
    Swap (CBMC)          total:             14968      14841          0
    Swap (CBMC)          constructed:       13324      14841          0
    Swap (CBMC)          accepted:           3524       3516          0
    Swap (CBMC)          fraction:       0.235436   0.236911   0.000000
    Swap (CBMC)          max-change:     0.000000   0.000000   0.000000



Production run counting of the MC moves summed over systems and components
===============================================================================

Reinsertion (CBMC)                    15002 (20.0693 [%])
Translation                           14928 (19.9703 [%])
Rotation                              15012 (20.0827 [%])
Swap (CBMC)                           29809 (39.8777 [%])

Production count MC-steps:            74751 [-]
               All summed:            74751 [-]
               difference:                0 [-]


Production run CPU timings of the MC moves
===============================================================================

Component 0 CO2

Swap (CBMC)                          65.766697 [s]
    Deletion-Total                   34.775643 [s]
    Ewald                             2.144745 [s]
    Insertion-Total                  30.981770 [s]
    NonEwald                         63.015450 [s]
    Tail                              0.421089 [s]
    Overhead                          0.185413 [s]

Reinsertion (CBMC)                   53.851715 [s]
    Ewald                             1.361912 [s]
    NonEwald                         52.421387 [s]
    Overhead                          0.068416 [s]

Rotation                              9.704895 [s]
    Ewald                             1.543083 [s]
    ExternalField-Molecule            0.001222 [s]
    Framework-Molecule                4.212876 [s]
    Molecule-Molecule                 3.793596 [s]
    Overhead                          0.154117 [s]

Translation                           9.628894 [s]
    Ewald                             1.527518 [s]
    ExternalField-Molecule            0.001355 [s]
    Framework-Molecule                4.183995 [s]
    Molecule-Molecule                 3.774470 [s]
    Overhead                          0.141555 [s]



Property sampling                     0.028687 [s]
Energy/pressure sampling:             2.291219 [s]
Pressure sampling: (fw)               0.000000 [s]
Pressure sampling: (im)               0.000000 [s]
Pressure sampling: (ew)               0.000000 [s]
Pressure sampling: (tc)               0.000000 [s]
Pressure sampling: (..)               0.000000 [s]


Production run CPU timings of the MC moves summed over systems and components
===============================================================================


Translation                           9.628894 [s]
    Ewald                             1.527518 [s]
    ExternalField-Molecule            0.001355 [s]
    Framework-Molecule                4.183995 [s]
    Molecule-Molecule                 3.774470 [s]
    Overhead                          0.141555 [s]

Rotation                              9.704895 [s]
    Ewald                             1.543083 [s]
    ExternalField-Molecule            0.001222 [s]
    Framework-Molecule                4.212876 [s]
    Molecule-Molecule                 3.793596 [s]
    Overhead                          0.154117 [s]

Reinsertion (CBMC)                   53.851715 [s]
    Ewald                             1.361912 [s]
    NonEwald                         52.421387 [s]
    Overhead                          0.068416 [s]

Swap (CBMC)                          65.766697 [s]
    Deletion-Total                   34.775643 [s]
    Ewald                             2.144745 [s]
    Insertion-Total                  30.981770 [s]
    NonEwald                         63.015450 [s]
    Tail                              0.421089 [s]
    Overhead                          0.185413 [s]

Property sampling:                    0.028687 [s]
Energy/pressure sampling:             2.291219 [s]

Production simulation time:         141.451636 [s]
                All summed:         141.272107 [s]
                  Overhead:           0.179530 [s]


Initalization simulation time:       23.745612 [s]
Equilibration simulation time:        0.000000 [s]
Production simulation time:         141.451636 [s]
Total simulation time:              165.197248 [s]


Energy averages and statistics:
===============================================================================

Framework-molecule energy:
-------------------------------------------------------------------------------

    Framework-molecule energy/kʙ 0-0 [CO2]:
    ---------------------------------------------------------------------------
        Block[  0] -4.906065e+04
        Block[  1] -6.310423e+04
        Block[  2] -6.950361e+04
        Block[  3] -1.015476e+05
        Block[  4] -8.481026e+04
        -----------------------------------------------------------------------
        Average  -7.360527e+04 +/-  2.510599e+04 [K]



Framework-molecule energy contributions per energy type:
-------------------------------------------------------------------------------

    Van der Waals energy/kʙ 0-0 [CO2]:
    ---------------------------------------------------------------------------
        Block[  0] -4.069293e+04
        Block[  1] -5.713416e+04
        Block[  2] -6.532346e+04
        Block[  3] -9.482655e+04
        Block[  4] -7.780095e+04
        -----------------------------------------------------------------------
        Average  -6.715561e+04 +/-  2.546565e+04 [K]

    VDW Tail-Correction energy/kʙ 0-0 [CO2]:
    ---------------------------------------------------------------------------
        Block[  0]  0.000000e+00
        Block[  1]  0.000000e+00
        Block[  2]  0.000000e+00
        Block[  3]  0.000000e+00
        Block[  4]  0.000000e+00
        -----------------------------------------------------------------------
        Average   0.000000e+00 +/-  0.000000e+00 [K]

    Coulomb Real energy/kʙ 0-0 [CO2]:
    ---------------------------------------------------------------------------
        Block[  0] -1.087153e+03
        Block[  1]  7.781851e+02
        Block[  2]  1.335288e+03
        Block[  3] -1.273348e+02
        Block[  4] -8.468215e+01
        -----------------------------------------------------------------------
        Average   1.628607e+02 +/-  1.154835e+03 [K]

    Coulomb Fourier energy/kʙ 0-0 [CO2]:
    ---------------------------------------------------------------------------
        Block[  0] -7.280567e+03
        Block[  1] -6.748261e+03
        Block[  2] -5.515437e+03
        Block[  3] -6.593713e+03
        Block[  4] -6.924628e+03
        -----------------------------------------------------------------------
        Average  -6.612521e+03 +/-  8.249134e+02 [K]



Inter-molecular energy:
-------------------------------------------------------------------------------

    Inter-molecular energy/kʙ 0-0 [CO2-CO2]:
    ---------------------------------------------------------------------------
        Block[  0] -1.308425e+04
        Block[  1] -2.139133e+04
        Block[  2] -2.518331e+04
        Block[  3] -2.580474e+04
        Block[  4] -3.409407e+04
        -----------------------------------------------------------------------
        Average  -2.391154e+04 +/-  9.464229e+03 [K]



Inter-molecular energy contributions per energy type:
-------------------------------------------------------------------------------

    Van der Waals energy/kʙ 0-0 [CO2-CO2]:
    ---------------------------------------------------------------------------
        Block[  0]  1.736999e+03
        Block[  1] -8.917516e+03
        Block[  2] -1.114404e+04
        Block[  3] -1.055278e+04
        Block[  4] -1.942890e+04
        -----------------------------------------------------------------------
        Average  -9.661248e+03 +/-  9.390798e+03 [K]

    VDW Tail-Correction energy/kʙ 0-0 [CO2-CO2]:
    ---------------------------------------------------------------------------
        Block[  0]  0.000000e+00
        Block[  1]  0.000000e+00
        Block[  2]  0.000000e+00
        Block[  3]  0.000000e+00
        Block[  4]  0.000000e+00
        -----------------------------------------------------------------------
        Average   0.000000e+00 +/-  0.000000e+00 [K]

    Coulomb Real energy/kʙ 0-0 [CO2-CO2]:
    ---------------------------------------------------------------------------
        Block[  0] -1.310503e+04
        Block[  1] -1.081602e+04
        Block[  2] -1.231345e+04
        Block[  3] -1.342257e+04
        Block[  4] -1.285805e+04
        -----------------------------------------------------------------------
        Average  -1.250302e+04 +/-  1.274536e+03 [K]

    Coulomb Fourier energy/kʙ 0-0 [CO2-CO2]:
    ---------------------------------------------------------------------------
        Block[  0] -1.716220e+03
        Block[  1] -1.657798e+03
        Block[  2] -1.725817e+03
        Block[  3] -1.829397e+03
        Block[  4] -1.807114e+03
        -----------------------------------------------------------------------
        Average  -1.747269e+03 +/-  8.724721e+01 [K]


Total energy/kʙ
-------------------------------------------------------------------------------
    Block[  0] -6.214490e+04
    Block[  1] -8.449557e+04
    Block[  2] -9.468692e+04
    Block[  3] -1.273523e+05
    Block[  4] -1.189043e+05
    ---------------------------------------------------------------------------
    Average  -9.751681e+04 +/-  3.270687e+04 [K]

Enthalpy of adsorption
===============================================================================

Component 0 [CO2]
-------------------------------------------------------------------------------
    Block[  0]  2.877600e+03
    Block[  1] -5.363290e+03
    Block[  2] -2.143388e+03
    Block[  3]  1.086041e+03
    Block[  4]  1.266683e+01
    ---------------------------------------------------------------------------
    Enthalpy of adsorption: -7.060739e+02 +/-  3.941848e+03 [K]
                            -5.870627e+00 +/-  3.277435e+01 [kJ/mol]
    Warning: need to subtract the ideal-gas energy.


Loadings
===============================================================================

Component 0 (CO2)
    Block[  0]  1.491500e+02
    Block[  1]  1.488900e+02
    Block[  2]  1.488800e+02
    Block[  3]  1.509900e+02
    Block[  4]  1.496800e+02
    ---------------------------------------------------------------------------
    Abs. loading average   1.495180e+02 +/-  1.098167e+00 [molecules/cell]
    Abs. loading average   2.427794e+01 +/-  1.783145e-01 [mol/kg-framework]
    Abs. loading average   1.068200e+03 +/-  7.845625e+00 [mg/g-framework]

    Block[  0]  1.456495e+02
    Block[  1]  1.453895e+02
    Block[  2]  1.453795e+02
    Block[  3]  1.474895e+02
    Block[  4]  1.461795e+02
    ---------------------------------------------------------------------------
    Excess loading average   1.460175e+02 +/-  1.098167e+00 [molecules/cell]
    Excess loading average   2.370955e+01 +/-  1.783145e-01 [mol/kg-framework]
    Excess loading average   1.043192e+03 +/-  7.845625e+00 [mg/g-framework]



