ITEM: TIMESTEP
0
ITEM: NUMBER OF ATOMS
2000
ITEM: BOX BOUNDS pp pp pp
0.0000000000000000e+00 2.8700000000000003e+01
0.0000000000000000e+00 2.8700000000000003e+01
0.0000000000000000e+00 2.8700000000000003e+01
ITEM: ATOMS id type xs ys zs
1 1 0 0 0
2 1 0.05 0.05 0.05
3 1 0 0 0.1
4 1 0.05 0.05 0.15
5 1 0 0 0.2
6 1 0.05 0.05 0.25
7 1 0 0 0.3
8 1 0.05 0.05 0.35
9 1 0 0 0.4
10 1 0.05 0.05 0.45
11 1 0 0 0.5
12 1 0.05 0.05 0.55
13 1 0 0 0.6
14 1 0.05 0.05 0.65
15 1 0 0 0.7
16 1 0.05 0.05 0.75
17 1 0 0 0.8
18 1 0.05 0.05 0.85
19 1 0 0 0.9
20 1 0.05 0.05 0.95
21 1 0 0.1 0
22 1 0.05 0.15 0.05
23 1 0 0.1 0.1
24 1 0.05 0.15 0.15
25 1 0 0.1 0.2
26 1 0.05 0.15 0.25
27 1 0 0.1 0.3
28 1 0.05 0.15 0.35
29 1 0 0.1 0.4
30 1 0.05 0.15 0.45
31 1 0 0.1 0.5
32 1 0.05 0.15 0.55
33 1 0 0.1 0.6
34 1 0.05 0.15 0.65
35 1 0 0.1 0.7
36 1 0.05 0.15 0.75
37 1 0 0.1 0.8
38 1 0.05 0.15 0.85
39 1 0 0.1 0.9
40 1 0.05 0.15 0.95
41 1 0 0.2 0
42 1 0.05 0.25 0.05
43 1 0 0.2 0.1
44 1 0.05 0.25 0.15
45 1 0 0.2 0.2
46 1 0.05 0.25 0.25
47 1 0 0.2 0.3
48 1 0.05 0.25 0.35
49 1 0 0.2 0.4
50 1 0.05 0.25 0.45
51 1 0 0.2 0.5
52 1 0.05 0.25 0.55
53 1 0 0.2 0.6
54 1 0.05 0.25 0.65
55 1 0 0.2 0.7
56 1 0.05 0.25 0.75
57 1 0 0.2 0.8
58 1 0.05 0.25 0.85
59 1 0 0.2 0.9
60 1 0.05 0.25 0.95
61 1 0 0.3 0
62 1 0.05 0.35 0.05
63 1 0 0.3 0.1
64 1 0.05 0.35 0.15
65 1 0 0.3 0.2
66 1 0.05 0.35 0.25
67 1 0 0.3 0.3
68 1 0.05 0.35 0.35
69 1 0 0.3 0.4
70 1 0.05 0.35 0.45
71 1 0 0.3 0.5
72 1 0.05 0.35 0.55
73 1 0 0.3 0.6
74 1 0.05 0.35 0.65
75 1 0 0.3 0.7
76 1 0.05 0.35 0.75
77 1 0 0.3 0.8
78 1 0.05 0.35 0.85
79 1 0 0.3 0.9
80 1 0.05 0.35 0.95
81 1 0 0.4 0
82 1 0.05 0.45 0.05
83 1 0 0.4 0.1
84 1 0.05 0.45 0.15
85 1 0 0.4 0.2
86 1 0.05 0.45 0.25
87 1 0 0.4 0.3
88 1 0.05 0.45 0.35
89 1 0 0.4 0.4
90 1 0.05 0.45 0.45
91 1 0 0.4 0.5
92 1 0.05 0.45 0.55
93 1 0 0.4 0.6
94 1 0.05 0.45 0.65
95 1 0 0.4 0.7
96 1 0.05 0.45 0.75
97 1 0 0.4 0.8
98 1 0.05 0.45 0.85
99 1 0 0.4 0.9
100 1 0.05 0.45 0.95
101 1 0 0.5 0
102 1 0.05 0.55 0.05
103 1 0 0.5 0.1
104 1 0.05 0.55 0.15
105 1 0 0.5 0.2
106 1 0.05 0.55 0.25
107 1 0 0.5 0.3
108 1 0.05 0.55 0.35
109 1 0 0.5 0.4
110 1 0.05 0.55 0.45
111 1 0 0.5 0.5
112 1 0.05 0.55 0.55
113 1 0 0.5 0.6
114 1 0.05 0.55 0.65
115 1 0 0.5 0.7
116 1 0.05 0.55 0.75
117 1 0 0.5 0.8
118 1 0.05 0.55 0.85
119 1 0 0.5 0.9
120 1 0.05 0.55 0.95
121 1 0 0.6 0
122 1 0.05 0.65 0.05
123 1 0 0.6 0.1
124 1 0.05 0.65 0.15
125 1 0 0.6 0.2
126 1 0.05 0.65 0.25
127 1 0 0.6 0.3
128 1 0.05 0.65 0.35
129 1 0 0.6 0.4
130 1 0.05 0.65 0.45
131 1 0 0.6 0.5
132 1 0.05 0.65 0.55
133 1 0 0.6 0.6
134 1 0.05 0.65 0.65
135 1 0 0.6 0.7
136 1 0.05 0.65 0.75
137 1 0 0.6 0.8
138 1 0.05 0.65 0.85
139 1 0 0.6 0.9
140 1 0.05 0.65 0.95
141 1 0 0.7 0
142 1 0.05 0.75 0.05
143 1 0 0.7 0.1
144 1 0.05 0.75 0.15
145 1 0 0.7 0.2
146 1 0.05 0.75 0.25
147 1 0 0.7 0.3
148 1 0.05 0.75 0.35
149 1 0 0.7 0.4
150 1 0.05 0.75 0.45
151 1 0 0.7 0.5
152 1 0.05 0.75 0.55
153 1 0 0.7 0.6
154 1 0.05 0.75 0.65
155 1 0 0.7 0.7
156 1 0.05 0.75 0.75
157 1 0 0.7 0.8
158 1 0.05 0.75 0.85
159 1 0 0.7 0.9
160 1 0.05 0.75 0.95
161 1 0 0.8 0
162 1 0.05 0.85 0.05
163 1 0 0.8 0.1
164 1 0.05 0.85 0.15
165 1 0 0.8 0.2
166 1 0.05 0.85 0.25
167 1 0 0.8 0.3
168 1 0.05 0.85 0.35
169 1 0 0.8 0.4
170 1 0.05 0.85 0.45
171 1 0 0.8 0.5
172 1 0.05 0.85 0.55
173 1 0 0.8 0.6
174 1 0.05 0.85 0.65
175 1 0 0.8 0.7
176 1 0.05 0.85 0.75
177 1 0 0.8 0.8
178 1 0.05 0.85 0.85
179 1 0 0.8 0.9
180 1 0.05 0.85 0.95
181 1 0 0.9 0
182 1 0.05 0.95 0.05
183 1 0 0.9 0.1
184 1 0.05 0.95 0.15
185 1 0 0.9 0.2
186 1 0.05 0.95 0.25
187 1 0 0.9 0.3
188 1 0.05 0.95 0.35
189 1 0 0.9 0.4
190 1 0.05 0.95 0.45
191 1 0 0.9 0.5
192 1 0.05 0.95 0.55
193 1 0 0.9 0.6
194 1 0.05 0.95 0.65
195 1 0 0.9 0.7
196 1 0.05 0.95 0.75
197 1 0 0.9 0.8
198 1 0.05 0.95 0.85
199 1 0 0.9 0.9
200 1 0.05 0.95 0.95
201 1 0.1 0 0
202 1 0.15 0.05 0.05
203 1 0.1 0 0.1
204 1 0.15 0.05 0.15
205 1 0.1 0 0.2
206 1 0.15 0.05 0.25
207 1 0.1 0 0.3
208 1 0.15 0.05 0.35
209 1 0.1 0 0.4
210 1 0.15 0.05 0.45
211 1 0.1 0 0.5
212 1 0.15 0.05 0.55
213 1 0.1 0 0.6
214 1 0.15 0.05 0.65
215 1 0.1 0 0.7
216 1 0.15 0.05 0.75
217 1 0.1 0 0.8
218 1 0.15 0.05 0.85
219 1 0.1 0 0.9
220 1 0.15 0.05 0.95
221 1 0.1 0.1 0
222 1 0.15 0.15 0.05
223 1 0.1 0.1 0.1
224 1 0.15 0.15 0.15
225 1 0.1 0.1 0.2
226 1 0.15 0.15 0.25
227 1 0.1 0.1 0.3
228 1 0.15 0.15 0.35
229 1 0.1 0.1 0.4
230 1 0.15 0.15 0.45
231 1 0.1 0.1 0.5
232 1 0.15 0.15 0.55
233 1 0.1 0.1 0.6
234 1 0.15 0.15 0.65
235 1 0.1 0.1 0.7
236 1 0.15 0.15 0.75
237 1 0.1 0.1 0.8
238 1 0.15 0.15 0.85
239 1 0.1 0.1 0.9
240 1 0.15 0.15 0.95
241 1 0.1 0.2 0
242 1 0.15 0.25 0.05
243 1 0.1 0.2 0.1
244 1 0.15 0.25 0.15
245 1 0.1 0.2 0.2
246 1 0.15 0.25 0.25
247 1 0.1 0.2 0.3
248 1 0.15 0.25 0.35
249 1 0.1 0.2 0.4
250 1 0.15 0.25 0.45
251 1 0.1 0.2 0.5
252 1 0.15 0.25 0.55
253 1 0.1 0.2 0.6
254 1 0.15 0.25 0.65
255 1 0.1 0.2 0.7
256 1 0.15 0.25 0.75
257 1 0.1 0.2 0.8
258 1 0.15 0.25 0.85
259 1 0.1 0.2 0.9
260 1 0.15 0.25 0.95
261 1 0.1 0.3 0
262 1 0.15 0.35 0.05
263 1 0.1 0.3 0.1
264 1 0.15 0.35 0.15
265 1 0.1 0.3 0.2
266 1 0.15 0.35 0.25
267 1 0.1 0.3 0.3
268 1 0.15 0.35 0.35
269 1 0.1 0.3 0.4
270 1 0.15 0.35 0.45
271 1 0.1 0.3 0.5
272 1 0.15 0.35 0.55
273 1 0.1 0.3 0.6
274 1 0.15 0.35 0.65
275 1 0.1 0.3 0.7
276 1 0.15 0.35 0.75
277 1 0.1 0.3 0.8
278 1 0.15 0.35 0.85
279 1 0.1 0.3 0.9
280 1 0.15 0.35 0.95
281 1 0.1 0.4 0
282 1 0.15 0.45 0.05
283 1 0.1 0.4 0.1
284 1 0.15 0.45 0.15
285 1 0.1 0.4 0.2
286 1 0.15 0.45 0.25
287 1 0.1 0.4 0.3
288 1 0.15 0.45 0.35
289 1 0.1 0.4 0.4
290 1 0.15 0.45 0.45
291 1 0.1 0.4 0.5
292 1 0.15 0.45 0.55
293 1 0.1 0.4 0.6
294 1 0.15 0.45 0.65
295 1 0.1 0.4 0.7
296 1 0.15 0.45 0.75
297 1 0.1 0.4 0.8
298 1 0.15 0.45 0.85
299 1 0.1 0.4 0.9
300 1 0.15 0.45 0.95
301 1 0.1 0.5 0
302 1 0.15 0.55 0.05
303 1 0.1 0.5 0.1
304 1 0.15 0.55 0.15
305 1 0.1 0.5 0.2
306 1 0.15 0.55 0.25
307 1 0.1 0.5 0.3
308 1 0.15 0.55 0.35
309 1 0.1 0.5 0.4
310 1 0.15 0.55 0.45
311 1 0.1 0.5 0.5
312 1 0.15 0.55 0.55
313 1 0.1 0.5 0.6
314 1 0.15 0.55 0.65
315 1 0.1 0.5 0.7
316 1 0.15 0.55 0.75
317 1 0.1 0.5 0.8
318 1 0.15 0.55 0.85
319 1 0.1 0.5 0.9
320 1 0.15 0.55 0.95
321 1 0.1 0.6 0
322 1 0.15 0.65 0.05
323 1 0.1 0.6 0.1
324 1 0.15 0.65 0.15
325 1 0.1 0.6 0.2
326 1 0.15 0.65 0.25
327 1 0.1 0.6 0.3
328 1 0.15 0.65 0.35
329 1 0.1 0.6 0.4
330 1 0.15 0.65 0.45
331 1 0.1 0.6 0.5
332 1 0.15 0.65 0.55
333 1 0.1 0.6 0.6
334 1 0.15 0.65 0.65
335 1 0.1 0.6 0.7
336 1 0.15 0.65 0.75
337 1 0.1 0.6 0.8
338 1 0.15 0.65 0.85
339 1 0.1 0.6 0.9
340 1 0.15 0.65 0.95
341 1 0.1 0.7 0
342 1 0.15 0.75 0.05
343 1 0.1 0.7 0.1
344 1 0.15 0.75 0.15
345 1 0.1 0.7 0.2
346 1 0.15 0.75 0.25
347 1 0.1 0.7 0.3
348 1 0.15 0.75 0.35
349 1 0.1 0.7 0.4
350 1 0.15 0.75 0.45
351 1 0.1 0.7 0.5
352 1 0.15 0.75 0.55
353 1 0.1 0.7 0.6
354 1 0.15 0.75 0.65
355 1 0.1 0.7 0.7
356 1 0.15 0.75 0.75
357 1 0.1 0.7 0.8
358 1 0.15 0.75 0.85
359 1 0.1 0.7 0.9
360 1 0.15 0.75 0.95
361 1 0.1 0.8 0
362 1 0.15 0.85 0.05
363 1 0.1 0.8 0.1
364 1 0.15 0.85 0.15
365 1 0.1 0.8 0.2
366 1 0.15 0.85 0.25
367 1 0.1 0.8 0.3
368 1 0.15 0.85 0.35
369 1 0.1 0.8 0.4
370 1 0.15 0.85 0.45
371 1 0.1 0.8 0.5
372 1 0.15 0.85 0.55
373 1 0.1 0.8 0.6
374 1 0.15 0.85 0.65
375 1 0.1 0.8 0.7
376 1 0.15 0.85 0.75
377 1 0.1 0.8 0.8
378 1 0.15 0.85 0.85
379 1 0.1 0.8 0.9
380 1 0.15 0.85 0.95
381 1 0.1 0.9 0
382 1 0.15 0.95 0.05
383 1 0.1 0.9 0.1
384 1 0.15 0.95 0.15
385 1 0.1 0.9 0.2
386 1 0.15 0.95 0.25
387 1 0.1 0.9 0.3
388 1 0.15 0.95 0.35
389 1 0.1 0.9 0.4
390 1 0.15 0.95 0.45
391 1 0.1 0.9 0.5
392 1 0.15 0.95 0.55
393 1 0.1 0.9 0.6
394 1 0.15 0.95 0.65
395 1 0.1 0.9 0.7
396 1 0.15 0.95 0.75
397 1 0.1 0.9 0.8
398 1 0.15 0.95 0.85
399 1 0.1 0.9 0.9
400 1 0.15 0.95 0.95
401 1 0.2 0 0
402 1 0.25 0.05 0.05
403 1 0.2 0 0.1
404 1 0.25 0.05 0.15
405 1 0.2 0 0.2
406 1 0.25 0.05 0.25
407 1 0.2 0 0.3
408 1 0.25 0.05 0.35
409 1 0.2 0 0.4
410 1 0.25 0.05 0.45
411 1 0.2 0 0.5
412 1 0.25 0.05 0.55
413 1 0.2 0 0.6
414 1 0.25 0.05 0.65
415 1 0.2 0 0.7
416 1 0.25 0.05 0.75
417 1 0.2 0 0.8
418 1 0.25 0.05 0.85
419 1 0.2 0 0.9
420 1 0.25 0.05 0.95
421 1 0.2 0.1 0
422 1 0.25 0.15 0.05
423 1 0.2 0.1 0.1
424 1 0.25 0.15 0.15
425 1 0.2 0.1 0.2
426 1 0.25 0.15 0.25
427 1 0.2 0.1 0.3
428 1 0.25 0.15 0.35
429 1 0.2 0.1 0.4
430 1 0.25 0.15 0.45
431 1 0.2 0.1 0.5
432 1 0.25 0.15 0.55
433 1 0.2 0.1 0.6
434 1 0.25 0.15 0.65
435 1 0.2 0.1 0.7
436 1 0.25 0.15 0.75
437 1 0.2 0.1 0.8
438 1 0.25 0.15 0.85
439 1 0.2 0.1 0.9
440 1 0.25 0.15 0.95
441 1 0.2 0.2 0
442 1 0.25 0.25 0.05
443 1 0.2 0.2 0.1
444 1 0.25 0.25 0.15
445 1 0.2 0.2 0.2
446 1 0.25 0.25 0.25
447 1 0.2 0.2 0.3
448 1 0.25 0.25 0.35
449 1 0.2 0.2 0.4
450 1 0.25 0.25 0.45
451 1 0.2 0.2 0.5
452 1 0.25 0.25 0.55
453 1 0.2 0.2 0.6
454 1 0.25 0.25 0.65
455 1 0.2 0.2 0.7
456 1 0.25 0.25 0.75
457 1 0.2 0.2 0.8
458 1 0.25 0.25 0.85
459 1 0.2 0.2 0.9
460 1 0.25 0.25 0.95
461 1 0.2 0.3 0
462 1 0.25 0.35 0.05
463 1 0.2 0.3 0.1
464 1 0.25 0.35 0.15
465 1 0.2 0.3 0.2
466 1 0.25 0.35 0.25
467 1 0.2 0.3 0.3
468 1 0.25 0.35 0.35
469 1 0.2 0.3 0.4
470 1 0.25 0.35 0.45
471 1 0.2 0.3 0.5
472 1 0.25 0.35 0.55
473 1 0.2 0.3 0.6
474 1 0.25 0.35 0.65
475 1 0.2 0.3 0.7
476 1 0.25 0.35 0.75
477 1 0.2 0.3 0.8
478 1 0.25 0.35 0.85
479 1 0.2 0.3 0.9
480 1 0.25 0.35 0.95
481 1 0.2 0.4 0
482 1 0.25 0.45 0.05
483 1 0.2 0.4 0.1
484 1 0.25 0.45 0.15
485 1 0.2 0.4 0.2
486 1 0.25 0.45 0.25
487 1 0.2 0.4 0.3
488 1 0.25 0.45 0.35
489 1 0.2 0.4 0.4
490 1 0.25 0.45 0.45
491 1 0.2 0.4 0.5
492 1 0.25 0.45 0.55
493 1 0.2 0.4 0.6
494 1 0.25 0.45 0.65
495 1 0.2 0.4 0.7
496 1 0.25 0.45 0.75
497 1 0.2 0.4 0.8
498 1 0.25 0.45 0.85
499 1 0.2 0.4 0.9
500 1 0.25 0.45 0.95
501 1 0.2 0.5 0
502 1 0.25 0.55 0.05
503 1 0.2 0.5 0.1
504 1 0.25 0.55 0.15
505 1 0.2 0.5 0.2
506 1 0.25 0.55 0.25
507 1 0.2 0.5 0.3
508 1 0.25 0.55 0.35
509 1 0.2 0.5 0.4
510 1 0.25 0.55 0.45
511 1 0.2 0.5 0.5
512 1 0.25 0.55 0.55
513 1 0.2 0.5 0.6
514 1 0.25 0.55 0.65
515 1 0.2 0.5 0.7
516 1 0.25 0.55 0.75
517 1 0.2 0.5 0.8
518 1 0.25 0.55 0.85
519 1 0.2 0.5 0.9
520 1 0.25 0.55 0.95
521 1 0.2 0.6 0
522 1 0.25 0.65 0.05
523 1 0.2 0.6 0.1
524 1 0.25 0.65 0.15
525 1 0.2 0.6 0.2
526 1 0.25 0.65 0.25
527 1 0.2 0.6 0.3
528 1 0.25 0.65 0.35
529 1 0.2 0.6 0.4
530 1 0.25 0.65 0.45
531 1 0.2 0.6 0.5
532 1 0.25 0.65 0.55
533 1 0.2 0.6 0.6
534 1 0.25 0.65 0.65
535 1 0.2 0.6 0.7
536 1 0.25 0.65 0.75
537 1 0.2 0.6 0.8
538 1 0.25 0.65 0.85
539 1 0.2 0.6 0.9
540 1 0.25 0.65 0.95
541 1 0.2 0.7 0
542 1 0.25 0.75 0.05
543 1 0.2 0.7 0.1
544 1 0.25 0.75 0.15
545 1 0.2 0.7 0.2
546 1 0.25 0.75 0.25
547 1 0.2 0.7 0.3
548 1 0.25 0.75 0.35
549 1 0.2 0.7 0.4
550 1 0.25 0.75 0.45
551 1 0.2 0.7 0.5
552 1 0.25 0.75 0.55
553 1 0.2 0.7 0.6
554 1 0.25 0.75 0.65
555 1 0.2 0.7 0.7
556 1 0.25 0.75 0.75
557 1 0.2 0.7 0.8
558 1 0.25 0.75 0.85
559 1 0.2 0.7 0.9
560 1 0.25 0.75 0.95
561 1 0.2 0.8 0
562 1 0.25 0.85 0.05
563 1 0.2 0.8 0.1
564 1 0.25 0.85 0.15
565 1 0.2 0.8 0.2
566 1 0.25 0.85 0.25
567 1 0.2 0.8 0.3
568 1 0.25 0.85 0.35
569 1 0.2 0.8 0.4
570 1 0.25 0.85 0.45
571 1 0.2 0.8 0.5
572 1 0.25 0.85 0.55
573 1 0.2 0.8 0.6
574 1 0.25 0.85 0.65
575 1 0.2 0.8 0.7
576 1 0.25 0.85 0.75
577 1 0.2 0.8 0.8
578 1 0.25 0.85 0.85
579 1 0.2 0.8 0.9
580 1 0.25 0.85 0.95
581 1 0.2 0.9 0
582 1 0.25 0.95 0.05
583 1 0.2 0.9 0.1
584 1 0.25 0.95 0.15
585 1 0.2 0.9 0.2
586 1 0.25 0.95 0.25
587 1 0.2 0.9 0.3
588 1 0.25 0.95 0.35
589 1 0.2 0.9 0.4
590 1 0.25 0.95 0.45
591 1 0.2 0.9 0.5
592 1 0.25 0.95 0.55
593 1 0.2 0.9 0.6
594 1 0.25 0.95 0.65
595 1 0.2 0.9 0.7
596 1 0.25 0.95 0.75
597 1 0.2 0.9 0.8
598 1 0.25 0.95 0.85
599 1 0.2 0.9 0.9
600 1 0.25 0.95 0.95
601 1 0.3 0 0
602 1 0.35 0.05 0.05
603 1 0.3 0 0.1
604 1 0.35 0.05 0.15
605 1 0.3 0 0.2
606 1 0.35 0.05 0.25
607 1 0.3 0 0.3
608 1 0.35 0.05 0.35
609 1 0.3 0 0.4
610 1 0.35 0.05 0.45
611 1 0.3 0 0.5
612 1 0.35 0.05 0.55
613 1 0.3 0 0.6
614 1 0.35 0.05 0.65
615 1 0.3 0 0.7
616 1 0.35 0.05 0.75
617 1 0.3 0 0.8
618 1 0.35 0.05 0.85
619 1 0.3 0 0.9
620 1 0.35 0.05 0.95
621 1 0.3 0.1 0
622 1 0.35 0.15 0.05
623 1 0.3 0.1 0.1
624 1 0.35 0.15 0.15
625 1 0.3 0.1 0.2
626 1 0.35 0.15 0.25
627 1 0.3 0.1 0.3
628 1 0.35 0.15 0.35
629 1 0.3 0.1 0.4
630 1 0.35 0.15 0.45
631 1 0.3 0.1 0.5
632 1 0.35 0.15 0.55
633 1 0.3 0.1 0.6
634 1 0.35 0.15 0.65
635 1 0.3 0.1 0.7
636 1 0.35 0.15 0.75
637 1 0.3 0.1 0.8
638 1 0.35 0.15 0.85
639 1 0.3 0.1 0.9
640 1 0.35 0.15 0.95
641 1 0.3 0.2 0
642 1 0.35 0.25 0.05
643 1 0.3 0.2 0.1
644 1 0.35 0.25 0.15
645 1 0.3 0.2 0.2
646 1 0.35 0.25 0.25
647 1 0.3 0.2 0.3
648 1 0.35 0.25 0.35
649 1 0.3 0.2 0.4
650 1 0.35 0.25 0.45
651 1 0.3 0.2 0.5
652 1 0.35 0.25 0.55
653 1 0.3 0.2 0.6
654 1 0.35 0.25 0.65
655 1 0.3 0.2 0.7
656 1 0.35 0.25 0.75
657 1 0.3 0.2 0.8
658 1 0.35 0.25 0.85
659 1 0.3 0.2 0.9
660 1 0.35 0.25 0.95
661 1 0.3 0.3 0
662 1 0.35 0.35 0.05
663 1 0.3 0.3 0.1
664 1 0.35 0.35 0.15
665 1 0.3 0.3 0.2
666 1 0.35 0.35 0.25
667 1 0.3 0.3 0.3
668 1 0.35 0.35 0.35
669 1 0.3 0.3 0.4
670 1 0.35 0.35 0.45
671 1 0.3 0.3 0.5
672 1 0.35 0.35 0.55
673 1 0.3 0.3 0.6
674 1 0.35 0.35 0.65
675 1 0.3 0.3 0.7
676 1 0.35 0.35 0.75
677 1 0.3 0.3 0.8
678 1 0.35 0.35 0.85
679 1 0.3 0.3 0.9
680 1 0.35 0.35 0.95
681 1 0.3 0.4 0
682 1 0.35 0.45 0.05
683 1 0.3 0.4 0.1
684 1 0.35 0.45 0.15
685 1 0.3 0.4 0.2
686 1 0.35 0.45 0.25
687 1 0.3 0.4 0.3
688 1 0.35 0.45 0.35
689 1 0.3 0.4 0.4
690 1 0.35 0.45 0.45
691 1 0.3 0.4 0.5
692 1 0.35 0.45 0.55
693 1 0.3 0.4 0.6
694 1 0.35 0.45 0.65
695 1 0.3 0.4 0.7
696 1 0.35 0.45 0.75
697 1 0.3 0.4 0.8
698 1 0.35 0.45 0.85
699 1 0.3 0.4 0.9
700 1 0.35 0.45 0.95
701 1 0.3 0.5 0
702 1 0.35 0.55 0.05
703 1 0.3 0.5 0.1
704 1 0.35 0.55 0.15
705 1 0.3 0.5 0.2
706 1 0.35 0.55 0.25
707 1 0.3 0.5 0.3
708 1 0.35 0.55 0.35
709 1 0.3 0.5 0.4
710 1 0.35 0.55 0.45
711 1 0.3 0.5 0.5
712 1 0.35 0.55 0.55
713 1 0.3 0.5 0.6
714 1 0.35 0.55 0.65
715 1 0.3 0.5 0.7
716 1 0.35 0.55 0.75
717 1 0.3 0.5 0.8
718 1 0.35 0.55 0.85
719 1 0.3 0.5 0.9
720 1 0.35 0.55 0.95
721 1 0.3 0.6 0
722 1 0.35 0.65 0.05
723 1 0.3 0.6 0.1
724 1 0.35 0.65 0.15
725 1 0.3 0.6 0.2
726 1 0.35 0.65 0.25
727 1 0.3 0.6 0.3
728 1 0.35 0.65 0.35
729 1 0.3 0.6 0.4
730 1 0.35 0.65 0.45
731 1 0.3 0.6 0.5
732 1 0.35 0.65 0.55
733 1 0.3 0.6 0.6
734 1 0.35 0.65 0.65
735 1 0.3 0.6 0.7
736 1 0.35 0.65 0.75
737 1 0.3 0.6 0.8
738 1 0.35 0.65 0.85
739 1 0.3 0.6 0.9
740 1 0.35 0.65 0.95
741 1 0.3 0.7 0
742 1 0.35 0.75 0.05
743 1 0.3 0.7 0.1
744 1 0.35 0.75 0.15
745 1 0.3 0.7 0.2
746 1 0.35 0.75 0.25
747 1 0.3 0.7 0.3
748 1 0.35 0.75 0.35
749 1 0.3 0.7 0.4
750 1 0.35 0.75 0.45
751 1 0.3 0.7 0.5
752 1 0.35 0.75 0.55
753 1 0.3 0.7 0.6
754 1 0.35 0.75 0.65
755 1 0.3 0.7 0.7
756 1 0.35 0.75 0.75
757 1 0.3 0.7 0.8
758 1 0.35 0.75 0.85
759 1 0.3 0.7 0.9
760 1 0.35 0.75 0.95
761 1 0.3 0.8 0
762 1 0.35 0.85 0.05
763 1 0.3 0.8 0.1
764 1 0.35 0.85 0.15
765 1 0.3 0.8 0.2
766 1 0.35 0.85 0.25
767 1 0.3 0.8 0.3
768 1 0.35 0.85 0.35
769 1 0.3 0.8 0.4
770 1 0.35 0.85 0.45
771 1 0.3 0.8 0.5
772 1 0.35 0.85 0.55
773 1 0.3 0.8 0.6
774 1 0.35 0.85 0.65
775 1 0.3 0.8 0.7
776 1 0.35 0.85 0.75
777 1 0.3 0.8 0.8
778 1 0.35 0.85 0.85
779 1 0.3 0.8 0.9
780 1 0.35 0.85 0.95
781 1 0.3 0.9 0
782 1 0.35 0.95 0.05
783 1 0.3 0.9 0.1
784 1 0.35 0.95 0.15
785 1 0.3 0.9 0.2
786 1 0.35 0.95 0.25
787 1 0.3 0.9 0.3
788 1 0.35 0.95 0.35
789 1 0.3 0.9 0.4
790 1 0.35 0.95 0.45
791 1 0.3 0.9 0.5
792 1 0.35 0.95 0.55
793 1 0.3 0.9 0.6
794 1 0.35 0.95 0.65
795 1 0.3 0.9 0.7
796 1 0.35 0.95 0.75
797 1 0.3 0.9 0.8
798 1 0.35 0.95 0.85
799 1 0.3 0.9 0.9
800 1 0.35 0.95 0.95
801 1 0.4 0 0
802 1 0.45 0.05 0.05
803 1 0.4 0 0.1
804 1 0.45 0.05 0.15
805 1 0.4 0 0.2
806 1 0.45 0.05 0.25
807 1 0.4 0 0.3
808 1 0.45 0.05 0.35
809 1 0.4 0 0.4
810 1 0.45 0.05 0.45
811 1 0.4 0 0.5
812 1 0.45 0.05 0.55
813 1 0.4 0 0.6
814 1 0.45 0.05 0.65
815 1 0.4 0 0.7
816 1 0.45 0.05 0.75
817 1 0.4 0 0.8
818 1 0.45 0.05 0.85
819 1 0.4 0 0.9
820 1 0.45 0.05 0.95
821 1 0.4 0.1 0
822 1 0.45 0.15 0.05
823 1 0.4 0.1 0.1
824 1 0.45 0.15 0.15
825 1 0.4 0.1 0.2
826 1 0.45 0.15 0.25
827 1 0.4 0.1 0.3
828 1 0.45 0.15 0.35
829 1 0.4 0.1 0.4
830 1 0.45 0.15 0.45
831 1 0.4 0.1 0.5
832 1 0.45 0.15 0.55
833 1 0.4 0.1 0.6
834 1 0.45 0.15 0.65
835 1 0.4 0.1 0.7
836 1 0.45 0.15 0.75
837 1 0.4 0.1 0.8
838 1 0.45 0.15 0.85
839 1 0.4 0.1 0.9
840 1 0.45 0.15 0.95
841 1 0.4 0.2 0
842 1 0.45 0.25 0.05
843 1 0.4 0.2 0.1
844 1 0.45 0.25 0.15
845 1 0.4 0.2 0.2
846 1 0.45 0.25 0.25
847 1 0.4 0.2 0.3
848 1 0.45 0.25 0.35
849 1 0.4 0.2 0.4
850 1 0.45 0.25 0.45
851 1 0.4 0.2 0.5
852 1 0.45 0.25 0.55
853 1 0.4 0.2 0.6
854 1 0.45 0.25 0.65
855 1 0.4 0.2 0.7
856 1 0.45 0.25 0.75
857 1 0.4 0.2 0.8
858 1 0.45 0.25 0.85
859 1 0.4 0.2 0.9
860 1 0.45 0.25 0.95
861 1 0.4 0.3 0
862 1 0.45 0.35 0.05
863 1 0.4 0.3 0.1
864 1 0.45 0.35 0.15
865 1 0.4 0.3 0.2
866 1 0.45 0.35 0.25
867 1 0.4 0.3 0.3
868 1 0.45 0.35 0.35
869 1 0.4 0.3 0.4
870 1 0.45 0.35 0.45
871 1 0.4 0.3 0.5
872 1 0.45 0.35 0.55
873 1 0.4 0.3 0.6
874 1 0.45 0.35 0.65
875 1 0.4 0.3 0.7
876 1 0.45 0.35 0.75
877 1 0.4 0.3 0.8
878 1 0.45 0.35 0.85
879 1 0.4 0.3 0.9
880 1 0.45 0.35 0.95
881 1 0.4 0.4 0
882 1 0.45 0.45 0.05
883 1 0.4 0.4 0.1
884 1 0.45 0.45 0.15
885 1 0.4 0.4 0.2
886 1 0.45 0.45 0.25
887 1 0.4 0.4 0.3
888 1 0.45 0.45 0.35
889 1 0.4 0.4 0.4
890 1 0.45 0.45 0.45
891 1 0.4 0.4 0.5
892 1 0.45 0.45 0.55
893 1 0.4 0.4 0.6
894 1 0.45 0.45 0.65
895 1 0.4 0.4 0.7
896 1 0.45 0.45 0.75
897 1 0.4 0.4 0.8
898 1 0.45 0.45 0.85
899 1 0.4 0.4 0.9
900 1 0.45 0.45 0.95
901 1 0.4 0.5 0
902 1 0.45 0.55 0.05
903 1 0.4 0.5 0.1
904 1 0.45 0.55 0.15
905 1 0.4 0.5 0.2
906 1 0.45 0.55 0.25
907 1 0.4 0.5 0.3
908 1 0.45 0.55 0.35
909 1 0.4 0.5 0.4
910 1 0.45 0.55 0.45
911 1 0.4 0.5 0.5
912 1 0.45 0.55 0.55
913 1 0.4 0.5 0.6
914 1 0.45 0.55 0.65
915 1 0.4 0.5 0.7
916 1 0.45 0.55 0.75
917 1 0.4 0.5 0.8
918 1 0.45 0.55 0.85
919 1 0.4 0.5 0.9
920 1 0.45 0.55 0.95
921 1 0.4 0.6 0
922 1 0.45 0.65 0.05
923 1 0.4 0.6 0.1
924 1 0.45 0.65 0.15
925 1 0.4 0.6 0.2
926 1 0.45 0.65 0.25
927 1 0.4 0.6 0.3
928 1 0.45 0.65 0.35
929 1 0.4 0.6 0.4
930 1 0.45 0.65 0.45
931 1 0.4 0.6 0.5
932 1 0.45 0.65 0.55
933 1 0.4 0.6 0.6
934 1 0.45 0.65 0.65
935 1 0.4 0.6 0.7
936 1 0.45 0.65 0.75
937 1 0.4 0.6 0.8
938 1 0.45 0.65 0.85
939 1 0.4 0.6 0.9
940 1 0.45 0.65 0.95
941 1 0.4 0.7 0
942 1 0.45 0.75 0.05
943 1 0.4 0.7 0.1
944 1 0.45 0.75 0.15
945 1 0.4 0.7 0.2
946 1 0.45 0.75 0.25
947 1 0.4 0.7 0.3
948 1 0.45 0.75 0.35
949 1 0.4 0.7 0.4
950 1 0.45 0.75 0.45
951 1 0.4 0.7 0.5
952 1 0.45 0.75 0.55
953 1 0.4 0.7 0.6
954 1 0.45 0.75 0.65
955 1 0.4 0.7 0.7
956 1 0.45 0.75 0.75
957 1 0.4 0.7 0.8
958 1 0.45 0.75 0.85
959 1 0.4 0.7 0.9
960 1 0.45 0.75 0.95
961 1 0.4 0.8 0
962 1 0.45 0.85 0.05
963 1 0.4 0.8 0.1
964 1 0.45 0.85 0.15
965 1 0.4 0.8 0.2
966 1 0.45 0.85 0.25
967 1 0.4 0.8 0.3
968 1 0.45 0.85 0.35
969 1 0.4 0.8 0.4
970 1 0.45 0.85 0.45
971 1 0.4 0.8 0.5
972 1 0.45 0.85 0.55
973 1 0.4 0.8 0.6
974 1 0.45 0.85 0.65
975 1 0.4 0.8 0.7
976 1 0.45 0.85 0.75
977 1 0.4 0.8 0.8
978 1 0.45 0.85 0.85
979 1 0.4 0.8 0.9
980 1 0.45 0.85 0.95
981 1 0.4 0.9 0
982 1 0.45 0.95 0.05
983 1 0.4 0.9 0.1
984 1 0.45 0.95 0.15
985 1 0.4 0.9 0.2
986 1 0.45 0.95 0.25
987 1 0.4 0.9 0.3
988 1 0.45 0.95 0.35
989 1 0.4 0.9 0.4
990 1 0.45 0.95 0.45
991 1 0.4 0.9 0.5
992 1 0.45 0.95 0.55
993 1 0.4 0.9 0.6
994 1 0.45 0.95 0.65
995 1 0.4 0.9 0.7
996 1 0.45 0.95 0.75
997 1 0.4 0.9 0.8
998 1 0.45 0.95 0.85
999 1 0.4 0.9 0.9
1000 1 0.45 0.95 0.95
1001 1 0.5 0 0
1002 1 0.55 0.05 0.05
1003 1 0.5 0 0.1
1004 1 0.55 0.05 0.15
1005 1 0.5 0 0.2
1006 1 0.55 0.05 0.25
1007 1 0.5 0 0.3
1008 1 0.55 0.05 0.35
1009 1 0.5 0 0.4
1010 1 0.55 0.05 0.45
1011 1 0.5 0 0.5
1012 1 0.55 0.05 0.55
1013 1 0.5 0 0.6
1014 1 0.55 0.05 0.65
1015 1 0.5 0 0.7
1016 1 0.55 0.05 0.75
1017 1 0.5 0 0.8
1018 1 0.55 0.05 0.85
1019 1 0.5 0 0.9
1020 1 0.55 0.05 0.95
1021 1 0.5 0.1 0
1022 1 0.55 0.15 0.05
1023 1 0.5 0.1 0.1
1024 1 0.55 0.15 0.15
1025 1 0.5 0.1 0.2
1026 1 0.55 0.15 0.25
1027 1 0.5 0.1 0.3
1028 1 0.55 0.15 0.35
1029 1 0.5 0.1 0.4
1030 1 0.55 0.15 0.45
1031 1 0.5 0.1 0.5
1032 1 0.55 0.15 0.55
1033 1 0.5 0.1 0.6
1034 1 0.55 0.15 0.65
1035 1 0.5 0.1 0.7
1036 1 0.55 0.15 0.75
1037 1 0.5 0.1 0.8
1038 1 0.55 0.15 0.85
1039 1 0.5 0.1 0.9
1040 1 0.55 0.15 0.95
1041 1 0.5 0.2 0
1042 1 0.55 0.25 0.05
1043 1 0.5 0.2 0.1
1044 1 0.55 0.25 0.15
1045 1 0.5 0.2 0.2
1046 1 0.55 0.25 0.25
1047 1 0.5 0.2 0.3
1048 1 0.55 0.25 0.35
1049 1 0.5 0.2 0.4
1050 1 0.55 0.25 0.45
1051 1 0.5 0.2 0.5
1052 1 0.55 0.25 0.55
1053 1 0.5 0.2 0.6
1054 1 0.55 0.25 0.65
1055 1 0.5 0.2 0.7
1056 1 0.55 0.25 0.75
1057 1 0.5 0.2 0.8
1058 1 0.55 0.25 0.85
1059 1 0.5 0.2 0.9
1060 1 0.55 0.25 0.95
1061 1 0.5 0.3 0
1062 1 0.55 0.35 0.05
1063 1 0.5 0.3 0.1
1064 1 0.55 0.35 0.15
1065 1 0.5 0.3 0.2
1066 1 0.55 0.35 0.25
1067 1 0.5 0.3 0.3
1068 1 0.55 0.35 0.35
1069 1 0.5 0.3 0.4
1070 1 0.55 0.35 0.45
1071 1 0.5 0.3 0.5
1072 1 0.55 0.35 0.55
1073 1 0.5 0.3 0.6
1074 1 0.55 0.35 0.65
1075 1 0.5 0.3 0.7
1076 1 0.55 0.35 0.75
1077 1 0.5 0.3 0.8
1078 1 0.55 0.35 0.85
1079 1 0.5 0.3 0.9
1080 1 0.55 0.35 0.95
1081 1 0.5 0.4 0
1082 1 0.55 0.45 0.05
1083 1 0.5 0.4 0.1
1084 1 0.55 0.45 0.15
1085 1 0.5 0.4 0.2
1086 1 0.55 0.45 0.25
1087 1 0.5 0.4 0.3
1088 1 0.55 0.45 0.35
1089 1 0.5 0.4 0.4
1090 1 0.55 0.45 0.45
1091 1 0.5 0.4 0.5
1092 1 0.55 0.45 0.55
1093 1 0.5 0.4 0.6
1094 1 0.55 0.45 0.65
1095 1 0.5 0.4 0.7
1096 1 0.55 0.45 0.75
1097 1 0.5 0.4 0.8
1098 1 0.55 0.45 0.85
1099 1 0.5 0.4 0.9
1100 1 0.55 0.45 0.95
1101 1 0.5 0.5 0
1102 1 0.55 0.55 0.05
1103 1 0.5 0.5 0.1
1104 1 0.55 0.55 0.15
1105 1 0.5 0.5 0.2
1106 1 0.55 0.55 0.25
1107 1 0.5 0.5 0.3
1108 1 0.55 0.55 0.35
1109 1 0.5 0.5 0.4
1110 1 0.55 0.55 0.45
1111 1 0.5 0.5 0.5
1112 1 0.55 0.55 0.55
1113 1 0.5 0.5 0.6
1114 1 0.55 0.55 0.65
1115 1 0.5 0.5 0.7
1116 1 0.55 0.55 0.75
1117 1 0.5 0.5 0.8
1118 1 0.55 0.55 0.85
1119 1 0.5 0.5 0.9
1120 1 0.55 0.55 0.95
1121 1 0.5 0.6 0
1122 1 0.55 0.65 0.05
1123 1 0.5 0.6 0.1
1124 1 0.55 0.65 0.15
1125 1 0.5 0.6 0.2
1126 1 0.55 0.65 0.25
1127 1 0.5 0.6 0.3
1128 1 0.55 0.65 0.35
1129 1 0.5 0.6 0.4
1130 1 0.55 0.65 0.45
1131 1 0.5 0.6 0.5
1132 1 0.55 0.65 0.55
1133 1 0.5 0.6 0.6
1134 1 0.55 0.65 0.65
1135 1 0.5 0.6 0.7
1136 1 0.55 0.65 0.75
1137 1 0.5 0.6 0.8
1138 1 0.55 0.65 0.85
1139 1 0.5 0.6 0.9
1140 1 0.55 0.65 0.95
1141 1 0.5 0.7 0
1142 1 0.55 0.75 0.05
1143 1 0.5 0.7 0.1
1144 1 0.55 0.75 0.15
1145 1 0.5 0.7 0.2
1146 1 0.55 0.75 0.25
1147 1 0.5 0.7 0.3
1148 1 0.55 0.75 0.35
1149 1 0.5 0.7 0.4
1150 1 0.55 0.75 0.45
1151 1 0.5 0.7 0.5
1152 1 0.55 0.75 0.55
1153 1 0.5 0.7 0.6
1154 1 0.55 0.75 0.65
1155 1 0.5 0.7 0.7
1156 1 0.55 0.75 0.75
1157 1 0.5 0.7 0.8
1158 1 0.55 0.75 0.85
1159 1 0.5 0.7 0.9
1160 1 0.55 0.75 0.95
1161 1 0.5 0.8 0
1162 1 0.55 0.85 0.05
1163 1 0.5 0.8 0.1
1164 1 0.55 0.85 0.15
1165 1 0.5 0.8 0.2
1166 1 0.55 0.85 0.25
1167 1 0.5 0.8 0.3
1168 1 0.55 0.85 0.35
1169 1 0.5 0.8 0.4
1170 1 0.55 0.85 0.45
1171 1 0.5 0.8 0.5
1172 1 0.55 0.85 0.55
1173 1 0.5 0.8 0.6
1174 1 0.55 0.85 0.65
1175 1 0.5 0.8 0.7
1176 1 0.55 0.85 0.75
1177 1 0.5 0.8 0.8
1178 1 0.55 0.85 0.85
1179 1 0.5 0.8 0.9
1180 1 0.55 0.85 0.95
1181 1 0.5 0.9 0
1182 1 0.55 0.95 0.05
1183 1 0.5 0.9 0.1
1184 1 0.55 0.95 0.15
1185 1 0.5 0.9 0.2
1186 1 0.55 0.95 0.25
1187 1 0.5 0.9 0.3
1188 1 0.55 0.95 0.35
1189 1 0.5 0.9 0.4
1190 1 0.55 0.95 0.45
1191 1 0.5 0.9 0.5
1192 1 0.55 0.95 0.55
1193 1 0.5 0.9 0.6
1194 1 0.55 0.95 0.65
1195 1 0.5 0.9 0.7
1196 1 0.55 0.95 0.75
1197 1 0.5 0.9 0.8
1198 1 0.55 0.95 0.85
1199 1 0.5 0.9 0.9
1200 1 0.55 0.95 0.95
1201 1 0.6 0 0
1202 1 0.65 0.05 0.05
1203 1 0.6 0 0.1
1204 1 0.65 0.05 0.15
1205 1 0.6 0 0.2
1206 1 0.65 0.05 0.25
1207 1 0.6 0 0.3
1208 1 0.65 0.05 0.35
1209 1 0.6 0 0.4
1210 1 0.65 0.05 0.45
1211 1 0.6 0 0.5
1212 1 0.65 0.05 0.55
1213 1 0.6 0 0.6
1214 1 0.65 0.05 0.65
1215 1 0.6 0 0.7
1216 1 0.65 0.05 0.75
1217 1 0.6 0 0.8
1218 1 0.65 0.05 0.85
1219 1 0.6 0 0.9
1220 1 0.65 0.05 0.95
1221 1 0.6 0.1 0
1222 1 0.65 0.15 0.05
1223 1 0.6 0.1 0.1
1224 1 0.65 0.15 0.15
1225 1 0.6 0.1 0.2
1226 1 0.65 0.15 0.25
1227 1 0.6 0.1 0.3
1228 1 0.65 0.15 0.35
1229 1 0.6 0.1 0.4
1230 1 0.65 0.15 0.45
1231 1 0.6 0.1 0.5
1232 1 0.65 0.15 0.55
1233 1 0.6 0.1 0.6
1234 1 0.65 0.15 0.65
1235 1 0.6 0.1 0.7
1236 1 0.65 0.15 0.75
1237 1 0.6 0.1 0.8
1238 1 0.65 0.15 0.85
1239 1 0.6 0.1 0.9
1240 1 0.65 0.15 0.95
1241 1 0.6 0.2 0
1242 1 0.65 0.25 0.05
1243 1 0.6 0.2 0.1
1244 1 0.65 0.25 0.15
1245 1 0.6 0.2 0.2
1246 1 0.65 0.25 0.25
1247 1 0.6 0.2 0.3
1248 1 0.65 0.25 0.35
1249 1 0.6 0.2 0.4
1250 1 0.65 0.25 0.45
1251 1 0.6 0.2 0.5
1252 1 0.65 0.25 0.55
1253 1 0.6 0.2 0.6
1254 1 0.65 0.25 0.65
1255 1 0.6 0.2 0.7
1256 1 0.65 0.25 0.75
1257 1 0.6 0.2 0.8
1258 1 0.65 0.25 0.85
1259 1 0.6 0.2 0.9
1260 1 0.65 0.25 0.95
1261 1 0.6 0.3 0
1262 1 0.65 0.35 0.05
1263 1 0.6 0.3 0.1
1264 1 0.65 0.35 0.15
1265 1 0.6 0.3 0.2
1266 1 0.65 0.35 0.25
1267 1 0.6 0.3 0.3
1268 1 0.65 0.35 0.35
1269 1 0.6 0.3 0.4
1270 1 0.65 0.35 0.45
1271 1 0.6 0.3 0.5
1272 1 0.65 0.35 0.55
1273 1 0.6 0.3 0.6
1274 1 0.65 0.35 0.65
1275 1 0.6 0.3 0.7
1276 1 0.65 0.35 0.75
1277 1 0.6 0.3 0.8
1278 1 0.65 0.35 0.85
1279 1 0.6 0.3 0.9
1280 1 0.65 0.35 0.95
1281 1 0.6 0.4 0
1282 1 0.65 0.45 0.05
1283 1 0.6 0.4 0.1
1284 1 0.65 0.45 0.15
1285 1 0.6 0.4 0.2
1286 1 0.65 0.45 0.25
1287 1 0.6 0.4 0.3
1288 1 0.65 0.45 0.35
1289 1 0.6 0.4 0.4
1290 1 0.65 0.45 0.45
1291 1 0.6 0.4 0.5
1292 1 0.65 0.45 0.55
1293 1 0.6 0.4 0.6
1294 1 0.65 0.45 0.65
1295 1 0.6 0.4 0.7
1296 1 0.65 0.45 0.75
1297 1 0.6 0.4 0.8
1298 1 0.65 0.45 0.85
1299 1 0.6 0.4 0.9
1300 1 0.65 0.45 0.95
1301 1 0.6 0.5 0
1302 1 0.65 0.55 0.05
1303 1 0.6 0.5 0.1
1304 1 0.65 0.55 0.15
1305 1 0.6 0.5 0.2
1306 1 0.65 0.55 0.25
1307 1 0.6 0.5 0.3
1308 1 0.65 0.55 0.35
1309 1 0.6 0.5 0.4
1310 1 0.65 0.55 0.45
1311 1 0.6 0.5 0.5
1312 1 0.65 0.55 0.55
1313 1 0.6 0.5 0.6
1314 1 0.65 0.55 0.65
1315 1 0.6 0.5 0.7
1316 1 0.65 0.55 0.75
1317 1 0.6 0.5 0.8
1318 1 0.65 0.55 0.85
1319 1 0.6 0.5 0.9
1320 1 0.65 0.55 0.95
1321 1 0.6 0.6 0
1322 1 0.65 0.65 0.05
1323 1 0.6 0.6 0.1
1324 1 0.65 0.65 0.15
1325 1 0.6 0.6 0.2
1326 1 0.65 0.65 0.25
1327 1 0.6 0.6 0.3
1328 1 0.65 0.65 0.35
1329 1 0.6 0.6 0.4
1330 1 0.65 0.65 0.45
1331 1 0.6 0.6 0.5
1332 1 0.65 0.65 0.55
1333 1 0.6 0.6 0.6
1334 1 0.65 0.65 0.65
1335 1 0.6 0.6 0.7
1336 1 0.65 0.65 0.75
1337 1 0.6 0.6 0.8
1338 1 0.65 0.65 0.85
1339 1 0.6 0.6 0.9
1340 1 0.65 0.65 0.95
1341 1 0.6 0.7 0
1342 1 0.65 0.75 0.05
1343 1 0.6 0.7 0.1
1344 1 0.65 0.75 0.15
1345 1 0.6 0.7 0.2
1346 1 0.65 0.75 0.25
1347 1 0.6 0.7 0.3
1348 1 0.65 0.75 0.35
1349 1 0.6 0.7 0.4
1350 1 0.65 0.75 0.45
1351 1 0.6 0.7 0.5
1352 1 0.65 0.75 0.55
1353 1 0.6 0.7 0.6
1354 1 0.65 0.75 0.65
1355 1 0.6 0.7 0.7
1356 1 0.65 0.75 0.75
1357 1 0.6 0.7 0.8
1358 1 0.65 0.75 0.85
1359 1 0.6 0.7 0.9
1360 1 0.65 0.75 0.95
1361 1 0.6 0.8 0
1362 1 0.65 0.85 0.05
1363 1 0.6 0.8 0.1
1364 1 0.65 0.85 0.15
1365 1 0.6 0.8 0.2
1366 1 0.65 0.85 0.25
1367 1 0.6 0.8 0.3
1368 1 0.65 0.85 0.35
1369 1 0.6 0.8 0.4
1370 1 0.65 0.85 0.45
1371 1 0.6 0.8 0.5
1372 1 0.65 0.85 0.55
1373 1 0.6 0.8 0.6
1374 1 0.65 0.85 0.65
1375 1 0.6 0.8 0.7
1376 1 0.65 0.85 0.75
1377 1 0.6 0.8 0.8
1378 1 0.65 0.85 0.85
1379 1 0.6 0.8 0.9
1380 1 0.65 0.85 0.95
1381 1 0.6 0.9 0
1382 1 0.65 0.95 0.05
1383 1 0.6 0.9 0.1
1384 1 0.65 0.95 0.15
1385 1 0.6 0.9 0.2
1386 1 0.65 0.95 0.25
1387 1 0.6 0.9 0.3
1388 1 0.65 0.95 0.35
1389 1 0.6 0.9 0.4
1390 1 0.65 0.95 0.45
1391 1 0.6 0.9 0.5
1392 1 0.65 0.95 0.55
1393 1 0.6 0.9 0.6
1394 1 0.65 0.95 0.65
1395 1 0.6 0.9 0.7
1396 1 0.65 0.95 0.75
1397 1 0.6 0.9 0.8
1398 1 0.65 0.95 0.85
1399 1 0.6 0.9 0.9
1400 1 0.65 0.95 0.95
1401 1 0.7 0 0
1402 1 0.75 0.05 0.05
1403 1 0.7 0 0.1
1404 1 0.75 0.05 0.15
1405 1 0.7 0 0.2
1406 1 0.75 0.05 0.25
1407 1 0.7 0 0.3
1408 1 0.75 0.05 0.35
1409 1 0.7 0 0.4
1410 1 0.75 0.05 0.45
1411 1 0.7 0 0.5
1412 1 0.75 0.05 0.55
1413 1 0.7 0 0.6
1414 1 0.75 0.05 0.65
1415 1 0.7 0 0.7
1416 1 0.75 0.05 0.75
1417 1 0.7 0 0.8
1418 1 0.75 0.05 0.85
1419 1 0.7 0 0.9
1420 1 0.75 0.05 0.95
1421 1 0.7 0.1 0
1422 1 0.75 0.15 0.05
1423 1 0.7 0.1 0.1
1424 1 0.75 0.15 0.15
1425 1 0.7 0.1 0.2
1426 1 0.75 0.15 0.25
1427 1 0.7 0.1 0.3
1428 1 0.75 0.15 0.35
1429 1 0.7 0.1 0.4
1430 1 0.75 0.15 0.45
1431 1 0.7 0.1 0.5
1432 1 0.75 0.15 0.55
1433 1 0.7 0.1 0.6
1434 1 0.75 0.15 0.65
1435 1 0.7 0.1 0.7
1436 1 0.75 0.15 0.75
1437 1 0.7 0.1 0.8
1438 1 0.75 0.15 0.85
1439 1 0.7 0.1 0.9
1440 1 0.75 0.15 0.95
1441 1 0.7 0.2 0
1442 1 0.75 0.25 0.05
1443 1 0.7 0.2 0.1
1444 1 0.75 0.25 0.15
1445 1 0.7 0.2 0.2
1446 1 0.75 0.25 0.25
1447 1 0.7 0.2 0.3
1448 1 0.75 0.25 0.35
1449 1 0.7 0.2 0.4
1450 1 0.75 0.25 0.45
1451 1 0.7 0.2 0.5
1452 1 0.75 0.25 0.55
1453 1 0.7 0.2 0.6
1454 1 0.75 0.25 0.65
1455 1 0.7 0.2 0.7
1456 1 0.75 0.25 0.75
1457 1 0.7 0.2 0.8
1458 1 0.75 0.25 0.85
1459 1 0.7 0.2 0.9
1460 1 0.75 0.25 0.95
1461 1 0.7 0.3 0
1462 1 0.75 0.35 0.05
1463 1 0.7 0.3 0.1
1464 1 0.75 0.35 0.15
1465 1 0.7 0.3 0.2
1466 1 0.75 0.35 0.25
1467 1 0.7 0.3 0.3
1468 1 0.75 0.35 0.35
1469 1 0.7 0.3 0.4
1470 1 0.75 0.35 0.45
1471 1 0.7 0.3 0.5
1472 1 0.75 0.35 0.55
1473 1 0.7 0.3 0.6
1474 1 0.75 0.35 0.65
1475 1 0.7 0.3 0.7
1476 1 0.75 0.35 0.75
1477 1 0.7 0.3 0.8
1478 1 0.75 0.35 0.85
1479 1 0.7 0.3 0.9
1480 1 0.75 0.35 0.95
1481 1 0.7 0.4 0
1482 1 0.75 0.45 0.05
1483 1 0.7 0.4 0.1
1484 1 0.75 0.45 0.15
1485 1 0.7 0.4 0.2
1486 1 0.75 0.45 0.25
1487 1 0.7 0.4 0.3
1488 1 0.75 0.45 0.35
1489 1 0.7 0.4 0.4
1490 1 0.75 0.45 0.45
1491 1 0.7 0.4 0.5
1492 1 0.75 0.45 0.55
1493 1 0.7 0.4 0.6
1494 1 0.75 0.45 0.65
1495 1 0.7 0.4 0.7
1496 1 0.75 0.45 0.75
1497 1 0.7 0.4 0.8
1498 1 0.75 0.45 0.85
1499 1 0.7 0.4 0.9
1500 1 0.75 0.45 0.95
1501 1 0.7 0.5 0
1502 1 0.75 0.55 0.05
1503 1 0.7 0.5 0.1
1504 1 0.75 0.55 0.15
1505 1 0.7 0.5 0.2
1506 1 0.75 0.55 0.25
1507 1 0.7 0.5 0.3
1508 1 0.75 0.55 0.35
1509 1 0.7 0.5 0.4
1510 1 0.75 0.55 0.45
1511 1 0.7 0.5 0.5
1512 1 0.75 0.55 0.55
1513 1 0.7 0.5 0.6
1514 1 0.75 0.55 0.65
1515 1 0.7 0.5 0.7
1516 1 0.75 0.55 0.75
1517 1 0.7 0.5 0.8
1518 1 0.75 0.55 0.85
1519 1 0.7 0.5 0.9
1520 1 0.75 0.55 0.95
1521 1 0.7 0.6 0
1522 1 0.75 0.65 0.05
1523 1 0.7 0.6 0.1
1524 1 0.75 0.65 0.15
1525 1 0.7 0.6 0.2
1526 1 0.75 0.65 0.25
1527 1 0.7 0.6 0.3
1528 1 0.75 0.65 0.35
1529 1 0.7 0.6 0.4
1530 1 0.75 0.65 0.45
1531 1 0.7 0.6 0.5