
     Program PWSCF v.7.4 starts on 17Nov2025 at 16: 4:16 

     This program is part of the open-source Quantum ESPRESSO suite
     for quantum simulation of materials; please cite
         "P. Giannozzi et al., J. Phys.:Condens. Matter 21 395502 (2009);
         "P. Giannozzi et al., J. Phys.:Condens. Matter 29 465901 (2017);
         "P. Giannozzi et al., J. Chem. Phys. 152 154105 (2020);
          URL http://www.quantum-espresso.org", 
     in publications or presentations arising from this work. More details at
     http://www.quantum-espresso.org/quote

     Parallel version (MPI & OpenMP), running on       6 processor cores
     Number of MPI processes:                 3
     Threads/MPI process:                     2

     MPI processes distributed on     1 nodes
     27177 MiB available memory on the printing compute node when the environment starts

     Waiting for input...
     Reading input from standard input

     Current dimensions of program PWSCF are:
     Max number of different atomic species (ntypx) = 10
     Max number of k-points (npk) =  40000
     Max angular momentum in pseudopotentials (lmaxx) =  4
     Message from routine setup:
     using ibrav=0 with symmetry is DISCOURAGED, use correct ibrav instead

     R & G space division:  proc/nbgrp/npool/nimage =       3
     Subspace diagonalization in iterative solution of the eigenvalue problem:
     a serial algorithm will be used


     Parallelization info
     --------------------
     sticks:   dense  smooth     PW     G-vecs:    dense   smooth      PW
     Min         419     211     65                15253     5385     893
     Max         421     213     69                15255     5385     893
     Sum        1261     637    199                45763    16155    2679

     Using Slab Decomposition



     bravais-lattice index     =            0
     lattice parameter (alat)  =       8.6953  a.u.
     unit-cell volume          =     730.0537 (a.u.)^3
     number of atoms/cell      =            3
     number of atomic types    =            1
     number of electrons       =        18.00
     number of Kohn-Sham states=           13
     kinetic-energy cutoff     =      30.0000  Ry
     charge density cutoff     =     240.0000  Ry
     scf convergence threshold =      6.0E-10
     mixing beta               =       0.4000
     number of iterations used =            8  plain     mixing
     Exchange-correlation= SLA  PW   PSX  PSC
                           (   1   4  10   8   0   0   0)

     celldm(1)=   8.695296  celldm(2)=   0.000000  celldm(3)=   0.000000
     celldm(4)=   0.000000  celldm(5)=   0.000000  celldm(6)=   0.000000

     crystal axes: (cart. coord. in units of alat)
               a(1) = (   1.000000   0.000000   0.000000 )  
               a(2) = (  -0.500000   0.866025   0.000000 )  
               a(3) = (   0.000000   0.000000   1.282245 )  

     reciprocal axes: (cart. coord. in units 2 pi/alat)
               b(1) = (  1.000000  0.577350 -0.000000 )  
               b(2) = (  0.000000  1.154701  0.000000 )  
               b(3) = (  0.000000 -0.000000  0.779882 )  


     PseudoPot. # 1 for Te read from file:
     ./pseudo/te_pbesol_v1.uspp.F.UPF
     MD5 check sum: 44ee7635674656c288d8e9a9a9ffd7e3
     Pseudo is Ultrasoft + core correction, Zval =  6.0
     Generated by new atomic code, or converted to UPF format
     Using radial grid of  891 points,  5 beta functions with: 
                l(1) =   0
                l(2) =   0
                l(3) =   1
                l(4) =   1
                l(5) =   2
     Q(r) pseudized with  6 coefficients,  rinner =    1.800   1.800   1.800
                                                       1.800   1.800

     atomic species   valence    mass     pseudopotential
     Te                6.00   127.60000     Te( 1.00)

      6 Sym. Ops. (no inversion) found ( 4 have fractional translation)


                                    s                        frac. trans.

      isym =  1     identity                                     

 cryst.   s( 1) = (     1          0          0      )
                  (     0          1          0      )
                  (     0          0          1      )

 cart.    s( 1) = (  1.0000000  0.0000000  0.0000000 )
                  (  0.0000000  1.0000000  0.0000000 )
                  (  0.0000000  0.0000000  1.0000000 )


      isym =  2     180 deg rotation - cart. axis [1,0,0]        

 cryst.   s( 2) = (     1          0          0      )    f =(  0.0000000 )
                  (    -1         -1          0      )       (  0.0000000 )
                  (     0          0         -1      )       (  0.3333333 )

 cart.    s( 2) = (  1.0000000  0.0000000  0.0000000 )    f =(  0.0000000 )
                  (  0.0000000 -1.0000000  0.0000000 )       (  0.0000000 )
                  (  0.0000000  0.0000000 -1.0000000 )       (  0.4274151 )


      isym =  3     120 deg rotation - cryst. axis [0,0,1]       

 cryst.   s( 3) = (     0          1          0      )    f =(  0.0000000 )
                  (    -1         -1          0      )       ( -0.0000000 )
                  (     0          0          1      )       ( -0.3333333 )

 cart.    s( 3) = ( -0.5000000 -0.8660254  0.0000000 )    f =(  0.0000000 )
                  (  0.8660254 -0.5000000  0.0000000 )       ( -0.0000000 )
                  (  0.0000000  0.0000000  1.0000000 )       ( -0.4274150 )


      isym =  4     120 deg rotation - cryst. axis [0,0,-1]      

 cryst.   s( 4) = (    -1         -1          0      )    f =(  0.0000000 )
                  (     1          0          0      )       ( -0.0000000 )
                  (     0          0          1      )       (  0.3333333 )

 cart.    s( 4) = ( -0.5000000  0.8660254  0.0000000 )    f =(  0.0000000 )
                  ( -0.8660254 -0.5000000  0.0000000 )       ( -0.0000000 )
                  (  0.0000000  0.0000000  1.0000000 )       (  0.4274151 )


      isym =  5     180 deg rotation - cryst. axis [0,1,0]       

 cryst.   s( 5) = (    -1         -1          0      )    f =(  0.0000000 )
                  (     0          1          0      )       (  0.0000000 )
                  (     0          0         -1      )       ( -0.3333333 )

 cart.    s( 5) = ( -0.5000000 -0.8660254  0.0000000 )    f =( -0.0000000 )
                  ( -0.8660254  0.5000000  0.0000000 )       (  0.0000000 )
                  (  0.0000000  0.0000000 -1.0000000 )       ( -0.4274150 )


      isym =  6     180 deg rotation - cryst. axis [1,1,0]       

 cryst.   s( 6) = (     0          1          0      )
                  (     1          0          0      )
                  (     0          0         -1      )

 cart.    s( 6) = ( -0.5000000  0.8660254  0.0000000 )
                  (  0.8660254  0.5000000  0.0000000 )
                  (  0.0000000  0.0000000 -1.0000000 )


   Cartesian axes

     site n.     atom                  positions (alat units)
         1        Te     tau(   1) = (   0.2566972   0.0000000   0.4274150  )
         2        Te     tau(   2) = (  -0.1283486   0.2223063   0.8548301  )
         3        Te     tau(   3) = (   0.3716514   0.6437191   0.0000000  )

   Crystallographic axes

     site n.     atom                  positions (cryst. coord.)
         1        Te     tau(   1) = (  0.2566972  0.0000000  0.3333333  )
         2        Te     tau(   2) = (  0.0000000  0.2566972  0.6666667  )
         3        Te     tau(   3) = (  0.7433028  0.7433028  0.0000000  )

     number of k points=   110  Marzari-Vanderbilt smearing, width (Ry)=  0.0200
                       cart. coord. in units 2pi/alat
        k(    1) = (   0.0000000   0.0000000   0.0000000), wk =   0.0020661
        k(    2) = (   0.0000000   0.0000000   0.0974853), wk =   0.0041322
        k(    3) = (   0.0000000   0.0000000   0.1949705), wk =   0.0041322
        k(    4) = (   0.0000000   0.0000000   0.2924558), wk =   0.0041322
        k(    5) = (   0.0000000   0.0000000  -0.3899410), wk =   0.0020661
        k(    6) = (   0.0000000   0.1049728   0.0000000), wk =   0.0123967
        k(    7) = (   0.0000000   0.1049728   0.0974853), wk =   0.0123967
        k(    8) = (   0.0000000   0.1049728   0.1949705), wk =   0.0123967
        k(    9) = (   0.0000000   0.1049728   0.2924558), wk =   0.0123967
        k(   10) = (   0.0000000   0.1049728  -0.3899410), wk =   0.0123967
        k(   11) = (   0.0000000   0.2099456   0.0000000), wk =   0.0123967
        k(   12) = (   0.0000000   0.2099456   0.0974853), wk =   0.0123967
        k(   13) = (   0.0000000   0.2099456   0.1949705), wk =   0.0123967
        k(   14) = (   0.0000000   0.2099456   0.2924558), wk =   0.0123967
        k(   15) = (   0.0000000   0.2099456  -0.3899410), wk =   0.0123967
        k(   16) = (   0.0000000   0.3149183   0.0000000), wk =   0.0123967
        k(   17) = (   0.0000000   0.3149183   0.0974853), wk =   0.0123967
        k(   18) = (   0.0000000   0.3149183   0.1949705), wk =   0.0123967
        k(   19) = (   0.0000000   0.3149183   0.2924558), wk =   0.0123967
        k(   20) = (   0.0000000   0.3149183  -0.3899410), wk =   0.0123967
        k(   21) = (   0.0000000   0.4198911   0.0000000), wk =   0.0123967
        k(   22) = (   0.0000000   0.4198911   0.0974853), wk =   0.0123967
        k(   23) = (   0.0000000   0.4198911   0.1949705), wk =   0.0123967
        k(   24) = (   0.0000000   0.4198911   0.2924558), wk =   0.0123967
        k(   25) = (   0.0000000   0.4198911  -0.3899410), wk =   0.0123967
        k(   26) = (   0.0000000   0.5248639   0.0000000), wk =   0.0123967
        k(   27) = (   0.0000000   0.5248639   0.0974853), wk =   0.0123967
        k(   28) = (   0.0000000   0.5248639   0.1949705), wk =   0.0123967
        k(   29) = (   0.0000000   0.5248639   0.2924558), wk =   0.0123967
        k(   30) = (   0.0000000   0.5248639  -0.3899410), wk =   0.0123967
        k(   31) = (   0.0909091   0.1574592   0.0000000), wk =   0.0123967
        k(   32) = (   0.0909091   0.1574592   0.0974853), wk =   0.0247934
        k(   33) = (   0.0909091   0.1574592   0.1949705), wk =   0.0247934
        k(   34) = (   0.0909091   0.1574592   0.2924558), wk =   0.0247934
        k(   35) = (   0.0909091   0.1574592  -0.3899410), wk =   0.0123967
        k(   36) = (   0.0909091   0.2624319   0.0000000), wk =   0.0247934
        k(   37) = (   0.0909091   0.2624319   0.0974853), wk =   0.0247934
        k(   38) = (   0.0909091   0.2624319   0.1949705), wk =   0.0247934
        k(   39) = (   0.0909091   0.2624319   0.2924558), wk =   0.0247934
        k(   40) = (   0.0909091   0.2624319  -0.3899410), wk =   0.0247934
        k(   41) = (   0.0909091   0.3674047   0.0000000), wk =   0.0247934
        k(   42) = (   0.0909091   0.3674047   0.0974853), wk =   0.0247934
        k(   43) = (   0.0909091   0.3674047   0.1949705), wk =   0.0247934
        k(   44) = (   0.0909091   0.3674047   0.2924558), wk =   0.0247934
        k(   45) = (   0.0909091   0.3674047  -0.3899410), wk =   0.0247934
        k(   46) = (   0.0909091   0.4723775   0.0000000), wk =   0.0247934
        k(   47) = (   0.0909091   0.4723775   0.0974853), wk =   0.0247934
        k(   48) = (   0.0909091   0.4723775   0.1949705), wk =   0.0247934
        k(   49) = (   0.0909091   0.4723775   0.2924558), wk =   0.0247934
        k(   50) = (   0.0909091   0.4723775  -0.3899410), wk =   0.0247934
        k(   51) = (   0.0909091   0.5773503   0.0000000), wk =   0.0123967
        k(   52) = (   0.0909091   0.5773503   0.0974853), wk =   0.0247934
        k(   53) = (   0.0909091   0.5773503   0.1949705), wk =   0.0247934
        k(   54) = (   0.0909091   0.5773503   0.2924558), wk =   0.0247934
        k(   55) = (   0.0909091   0.5773503  -0.3899410), wk =   0.0123967
        k(   56) = (   0.1818182   0.3149183   0.0000000), wk =   0.0123967
        k(   57) = (   0.1818182   0.3149183   0.0974853), wk =   0.0247934
        k(   58) = (   0.1818182   0.3149183   0.1949705), wk =   0.0247934
        k(   59) = (   0.1818182   0.3149183   0.2924558), wk =   0.0247934
        k(   60) = (   0.1818182   0.3149183  -0.3899410), wk =   0.0123967
        k(   61) = (   0.1818182   0.4198911   0.0000000), wk =   0.0247934
        k(   62) = (   0.1818182   0.4198911   0.0974853), wk =   0.0247934
        k(   63) = (   0.1818182   0.4198911   0.1949705), wk =   0.0247934
        k(   64) = (   0.1818182   0.4198911   0.2924558), wk =   0.0247934
        k(   65) = (   0.1818182   0.4198911  -0.3899410), wk =   0.0247934
        k(   66) = (   0.1818182   0.5248639   0.0000000), wk =   0.0247934
        k(   67) = (   0.1818182   0.5248639   0.0974853), wk =   0.0247934
        k(   68) = (   0.1818182   0.5248639   0.1949705), wk =   0.0247934
        k(   69) = (   0.1818182   0.5248639   0.2924558), wk =   0.0247934
        k(   70) = (   0.1818182   0.5248639  -0.3899410), wk =   0.0247934
        k(   71) = (   0.2727273   0.4723775   0.0000000), wk =   0.0123967
        k(   72) = (   0.2727273   0.4723775   0.0974853), wk =   0.0247934
        k(   73) = (   0.2727273   0.4723775   0.1949705), wk =   0.0247934
        k(   74) = (   0.2727273   0.4723775   0.2924558), wk =   0.0247934
        k(   75) = (   0.2727273   0.4723775  -0.3899410), wk =   0.0123967
        k(   76) = (   0.2727273   0.5773503   0.0000000), wk =   0.0123967
        k(   77) = (   0.2727273   0.5773503   0.0974853), wk =   0.0247934
        k(   78) = (   0.2727273   0.5773503   0.1949705), wk =   0.0247934
        k(   79) = (   0.2727273   0.5773503   0.2924558), wk =   0.0247934
        k(   80) = (   0.2727273   0.5773503  -0.3899410), wk =   0.0123967
        k(   81) = (   0.0000000   0.1049728  -0.0974853), wk =   0.0123967
        k(   82) = (   0.0000000   0.1049728  -0.1949705), wk =   0.0123967
        k(   83) = (   0.0000000   0.1049728  -0.2924558), wk =   0.0123967
        k(   84) = (   0.0000000   0.2099456  -0.0974853), wk =   0.0123967
        k(   85) = (   0.0000000   0.2099456  -0.1949705), wk =   0.0123967
        k(   86) = (   0.0000000   0.2099456  -0.2924558), wk =   0.0123967
        k(   87) = (   0.0000000   0.3149183  -0.0974853), wk =   0.0123967
        k(   88) = (   0.0000000   0.3149183  -0.1949705), wk =   0.0123967
        k(   89) = (   0.0000000   0.3149183  -0.2924558), wk =   0.0123967
        k(   90) = (   0.0000000   0.4198911  -0.0974853), wk =   0.0123967
        k(   91) = (   0.0000000   0.4198911  -0.1949705), wk =   0.0123967
        k(   92) = (   0.0000000   0.4198911  -0.2924558), wk =   0.0123967
        k(   93) = (   0.0000000   0.5248639  -0.0974853), wk =   0.0123967
        k(   94) = (   0.0000000   0.5248639  -0.1949705), wk =   0.0123967
        k(   95) = (   0.0000000   0.5248639  -0.2924558), wk =   0.0123967
        k(   96) = (  -0.0909091   0.2624319  -0.0974853), wk =   0.0247934
        k(   97) = (  -0.0909091   0.2624319  -0.1949705), wk =   0.0247934
        k(   98) = (  -0.0909091   0.2624319  -0.2924558), wk =   0.0247934
        k(   99) = (  -0.0909091   0.3674047  -0.0974853), wk =   0.0247934
        k(  100) = (  -0.0909091   0.3674047  -0.1949705), wk =   0.0247934
        k(  101) = (  -0.0909091   0.3674047  -0.2924558), wk =   0.0247934
        k(  102) = (  -0.0909091   0.4723775  -0.0974853), wk =   0.0247934
        k(  103) = (  -0.0909091   0.4723775  -0.1949705), wk =   0.0247934
        k(  104) = (  -0.0909091   0.4723775  -0.2924558), wk =   0.0247934
        k(  105) = (  -0.1818182   0.4198911  -0.0974853), wk =   0.0247934
        k(  106) = (  -0.1818182   0.4198911  -0.1949705), wk =   0.0247934
        k(  107) = (  -0.1818182   0.4198911  -0.2924558), wk =   0.0247934
        k(  108) = (  -0.1818182   0.5248639  -0.0974853), wk =   0.0247934
        k(  109) = (  -0.1818182   0.5248639  -0.1949705), wk =   0.0247934
        k(  110) = (  -0.1818182   0.5248639  -0.2924558), wk =   0.0247934

                       cryst. coord.
        k(    1) = (   0.0000000   0.0000000   0.0000000), wk =   0.0020661
        k(    2) = (   0.0000000   0.0000000   0.1250000), wk =   0.0041322
        k(    3) = (   0.0000000   0.0000000   0.2500000), wk =   0.0041322
        k(    4) = (   0.0000000   0.0000000   0.3750000), wk =   0.0041322
        k(    5) = (   0.0000000   0.0000000  -0.5000000), wk =   0.0020661
        k(    6) = (   0.0000000   0.0909091   0.0000000), wk =   0.0123967
        k(    7) = (   0.0000000   0.0909091   0.1250000), wk =   0.0123967
        k(    8) = (   0.0000000   0.0909091   0.2500000), wk =   0.0123967
        k(    9) = (   0.0000000   0.0909091   0.3750000), wk =   0.0123967
        k(   10) = (   0.0000000   0.0909091  -0.5000000), wk =   0.0123967
        k(   11) = (   0.0000000   0.1818182   0.0000000), wk =   0.0123967
        k(   12) = (   0.0000000   0.1818182   0.1250000), wk =   0.0123967
        k(   13) = (   0.0000000   0.1818182   0.2500000), wk =   0.0123967
        k(   14) = (   0.0000000   0.1818182   0.3750000), wk =   0.0123967
        k(   15) = (   0.0000000   0.1818182  -0.5000000), wk =   0.0123967
        k(   16) = (   0.0000000   0.2727273   0.0000000), wk =   0.0123967
        k(   17) = (   0.0000000   0.2727273   0.1250000), wk =   0.0123967
        k(   18) = (   0.0000000   0.2727273   0.2500000), wk =   0.0123967
        k(   19) = (   0.0000000   0.2727273   0.3750000), wk =   0.0123967
        k(   20) = (   0.0000000   0.2727273  -0.5000000), wk =   0.0123967
        k(   21) = (   0.0000000   0.3636364   0.0000000), wk =   0.0123967
        k(   22) = (   0.0000000   0.3636364   0.1250000), wk =   0.0123967
        k(   23) = (   0.0000000   0.3636364   0.2500000), wk =   0.0123967
        k(   24) = (   0.0000000   0.3636364   0.3750000), wk =   0.0123967
        k(   25) = (   0.0000000   0.3636364  -0.5000000), wk =   0.0123967
        k(   26) = (   0.0000000   0.4545455   0.0000000), wk =   0.0123967
        k(   27) = (   0.0000000   0.4545455   0.1250000), wk =   0.0123967
        k(   28) = (   0.0000000   0.4545455   0.2500000), wk =   0.0123967
        k(   29) = (   0.0000000   0.4545455   0.3750000), wk =   0.0123967
        k(   30) = (   0.0000000   0.4545455  -0.5000000), wk =   0.0123967
        k(   31) = (   0.0909091   0.0909091   0.0000000), wk =   0.0123967
        k(   32) = (   0.0909091   0.0909091   0.1250000), wk =   0.0247934
        k(   33) = (   0.0909091   0.0909091   0.2500000), wk =   0.0247934
        k(   34) = (   0.0909091   0.0909091   0.3750000), wk =   0.0247934
        k(   35) = (   0.0909091   0.0909091  -0.5000000), wk =   0.0123967
        k(   36) = (   0.0909091   0.1818182   0.0000000), wk =   0.0247934
        k(   37) = (   0.0909091   0.1818182   0.1250000), wk =   0.0247934
        k(   38) = (   0.0909091   0.1818182   0.2500000), wk =   0.0247934
        k(   39) = (   0.0909091   0.1818182   0.3750000), wk =   0.0247934
        k(   40) = (   0.0909091   0.1818182  -0.5000000), wk =   0.0247934
        k(   41) = (   0.0909091   0.2727273   0.0000000), wk =   0.0247934
        k(   42) = (   0.0909091   0.2727273   0.1250000), wk =   0.0247934
        k(   43) = (   0.0909091   0.2727273   0.2500000), wk =   0.0247934
        k(   44) = (   0.0909091   0.2727273   0.3750000), wk =   0.0247934
        k(   45) = (   0.0909091   0.2727273  -0.5000000), wk =   0.0247934
        k(   46) = (   0.0909091   0.3636364   0.0000000), wk =   0.0247934
        k(   47) = (   0.0909091   0.3636364   0.1250000), wk =   0.0247934
        k(   48) = (   0.0909091   0.3636364   0.2500000), wk =   0.0247934
        k(   49) = (   0.0909091   0.3636364   0.3750000), wk =   0.0247934
        k(   50) = (   0.0909091   0.3636364  -0.5000000), wk =   0.0247934
        k(   51) = (   0.0909091   0.4545455   0.0000000), wk =   0.0123967
        k(   52) = (   0.0909091   0.4545455   0.1250000), wk =   0.0247934
        k(   53) = (   0.0909091   0.4545455   0.2500000), wk =   0.0247934
        k(   54) = (   0.0909091   0.4545455   0.3750000), wk =   0.0247934
        k(   55) = (   0.0909091   0.4545455  -0.5000000), wk =   0.0123967
        k(   56) = (   0.1818182   0.1818182   0.0000000), wk =   0.0123967
        k(   57) = (   0.1818182   0.1818182   0.1250000), wk =   0.0247934
        k(   58) = (   0.1818182   0.1818182   0.2500000), wk =   0.0247934
        k(   59) = (   0.1818182   0.1818182   0.3750000), wk =   0.0247934
        k(   60) = (   0.1818182   0.1818182  -0.5000000), wk =   0.0123967
        k(   61) = (   0.1818182   0.2727273   0.0000000), wk =   0.0247934
        k(   62) = (   0.1818182   0.2727273   0.1250000), wk =   0.0247934
        k(   63) = (   0.1818182   0.2727273   0.2500000), wk =   0.0247934
        k(   64) = (   0.1818182   0.2727273   0.3750000), wk =   0.0247934
        k(   65) = (   0.1818182   0.2727273  -0.5000000), wk =   0.0247934
        k(   66) = (   0.1818182   0.3636364   0.0000000), wk =   0.0247934
        k(   67) = (   0.1818182   0.3636364   0.1250000), wk =   0.0247934
        k(   68) = (   0.1818182   0.3636364   0.2500000), wk =   0.0247934
        k(   69) = (   0.1818182   0.3636364   0.3750000), wk =   0.0247934
        k(   70) = (   0.1818182   0.3636364  -0.5000000), wk =   0.0247934
        k(   71) = (   0.2727273   0.2727273   0.0000000), wk =   0.0123967
        k(   72) = (   0.2727273   0.2727273   0.1250000), wk =   0.0247934
        k(   73) = (   0.2727273   0.2727273   0.2500000), wk =   0.0247934
        k(   74) = (   0.2727273   0.2727273   0.3750000), wk =   0.0247934
        k(   75) = (   0.2727273   0.2727273  -0.5000000), wk =   0.0123967
        k(   76) = (   0.2727273   0.3636364   0.0000000), wk =   0.0123967
        k(   77) = (   0.2727273   0.3636364   0.1250000), wk =   0.0247934
        k(   78) = (   0.2727273   0.3636364   0.2500000), wk =   0.0247934
        k(   79) = (   0.2727273   0.3636364   0.3750000), wk =   0.0247934
        k(   80) = (   0.2727273   0.3636364  -0.5000000), wk =   0.0123967
        k(   81) = (   0.0000000   0.0909091  -0.1250000), wk =   0.0123967
        k(   82) = (   0.0000000   0.0909091  -0.2500000), wk =   0.0123967
        k(   83) = (   0.0000000   0.0909091  -0.3750000), wk =   0.0123967
        k(   84) = (   0.0000000   0.1818182  -0.1250000), wk =   0.0123967
        k(   85) = (   0.0000000   0.1818182  -0.2500000), wk =   0.0123967
        k(   86) = (   0.0000000   0.1818182  -0.3750000), wk =   0.0123967
        k(   87) = (   0.0000000   0.2727273  -0.1250000), wk =   0.0123967
        k(   88) = (   0.0000000   0.2727273  -0.2500000), wk =   0.0123967
        k(   89) = (   0.0000000   0.2727273  -0.3750000), wk =   0.0123967
        k(   90) = (   0.0000000   0.3636364  -0.1250000), wk =   0.0123967
        k(   91) = (   0.0000000   0.3636364  -0.2500000), wk =   0.0123967
        k(   92) = (   0.0000000   0.3636364  -0.3750000), wk =   0.0123967
        k(   93) = (   0.0000000   0.4545455  -0.1250000), wk =   0.0123967
        k(   94) = (   0.0000000   0.4545455  -0.2500000), wk =   0.0123967
        k(   95) = (   0.0000000   0.4545455  -0.3750000), wk =   0.0123967
        k(   96) = (  -0.0909091   0.2727273  -0.1250000), wk =   0.0247934
        k(   97) = (  -0.0909091   0.2727273  -0.2500000), wk =   0.0247934
        k(   98) = (  -0.0909091   0.2727273  -0.3750000), wk =   0.0247934
        k(   99) = (  -0.0909091   0.3636364  -0.1250000), wk =   0.0247934
        k(  100) = (  -0.0909091   0.3636364  -0.2500000), wk =   0.0247934
        k(  101) = (  -0.0909091   0.3636364  -0.3750000), wk =   0.0247934
        k(  102) = (  -0.0909091   0.4545455  -0.1250000), wk =   0.0247934
        k(  103) = (  -0.0909091   0.4545455  -0.2500000), wk =   0.0247934
        k(  104) = (  -0.0909091   0.4545455  -0.3750000), wk =   0.0247934
        k(  105) = (  -0.1818182   0.4545455  -0.1250000), wk =   0.0247934
        k(  106) = (  -0.1818182   0.4545455  -0.2500000), wk =   0.0247934
        k(  107) = (  -0.1818182   0.4545455  -0.3750000), wk =   0.0247934
        k(  108) = (  -0.1818182   0.5454545  -0.1250000), wk =   0.0247934
        k(  109) = (  -0.1818182   0.5454545  -0.2500000), wk =   0.0247934
        k(  110) = (  -0.1818182   0.5454545  -0.3750000), wk =   0.0247934

     Dense  grid:    45763 G-vectors     FFT dimensions: (  45,  45,  60)

     Smooth grid:    16155 G-vectors     FFT dimensions: (  32,  32,  45)

     Dynamical RAM for                 wfc:       0.13 MB

     Dynamical RAM for     wfc (w. buffer):      14.86 MB

     Dynamical RAM for           str. fact:       0.23 MB

     Dynamical RAM for           local pot:       0.00 MB

     Dynamical RAM for          nlocal pot:       0.40 MB

     Dynamical RAM for                qrad:       0.89 MB

     Dynamical RAM for          rho,v,vnew:       1.63 MB

     Dynamical RAM for               rhoin:       0.54 MB

     Dynamical RAM for            rho*nmix:       3.72 MB

     Dynamical RAM for           G-vectors:       0.91 MB

     Dynamical RAM for          h,s,v(r/c):       0.03 MB

     Dynamical RAM for          <psi|beta>:       0.01 MB

     Dynamical RAM for                 psi:       0.27 MB

     Dynamical RAM for                hpsi:       0.27 MB

     Dynamical RAM for                spsi:       0.27 MB

     Dynamical RAM for      wfcinit/wfcrot:       0.27 MB

     Dynamical RAM for           addusdens:      25.37 MB

     Dynamical RAM for          addusforce:      26.43 MB

     Dynamical RAM for         addusstress:      28.17 MB

     Estimated static dynamical RAM per process >      21.48 MB

     Estimated max dynamical RAM per process >      53.37 MB

     Estimated total dynamical RAM >     160.10 MB

     Initial potential from superposition of free atoms

     starting charge      17.9994, renormalised to      18.0000
     Starting wfcs are   12 randomized atomic wfcs +    1 random wfcs

     total cpu time spent up to now is       82.9 secs

     per-process dynamical memory:    31.7 Mb

     Self-consistent Calculation

     iteration #  1     ecut=    30.00 Ry     beta= 0.40
     Davidson diagonalization with overlap

---- Real-time Memory Report at c_bands before calling an iterative solver
            68 MiB given to the printing process from OS
            30 MiB allocation reported by mallinfo(arena+hblkhd)
         27094 MiB available memory on the node where the printing process lives
------------------
     ethr =  1.00E-02,  avg # of iterations =  6.6
     Minimization algorithm failed to find Fermi energy: reverting to bisection
     Possible cause: smearing is larger than the electronic band-gap.

     Threshold (ethr) on eigenvalues was too large:
     Diagonalizing with lowered threshold

     Davidson diagonalization with overlap

---- Real-time Memory Report at c_bands before calling an iterative solver
            85 MiB given to the printing process from OS
            56 MiB allocation reported by mallinfo(arena+hblkhd)
         27007 MiB available memory on the node where the printing process lives
------------------
     ethr =  9.74E-05,  avg # of iterations =  4.9
     Minimization algorithm failed to find Fermi energy: reverting to bisection
     Possible cause: smearing is larger than the electronic band-gap.

     total cpu time spent up to now is      725.3 secs

     total energy              =     -79.29468448 Ry
     estimated scf accuracy    <       0.01710815 Ry

     iteration #  2     ecut=    30.00 Ry     beta= 0.40
     Davidson diagonalization with overlap

---- Real-time Memory Report at c_bands before calling an iterative solver
            85 MiB given to the printing process from OS
            57 MiB allocation reported by mallinfo(arena+hblkhd)
         26982 MiB available memory on the node where the printing process lives
------------------
     ethr =  9.50E-05,  avg # of iterations =  1.0
     Minimization algorithm failed to find Fermi energy: reverting to bisection
     Possible cause: smearing is larger than the electronic band-gap.

     total cpu time spent up to now is      927.2 secs

     total energy              =     -79.29401397 Ry
     estimated scf accuracy    <       0.00482602 Ry

     iteration #  3     ecut=    30.00 Ry     beta= 0.40
     Davidson diagonalization with overlap

---- Real-time Memory Report at c_bands before calling an iterative solver
            86 MiB given to the printing process from OS
            57 MiB allocation reported by mallinfo(arena+hblkhd)
         27021 MiB available memory on the node where the printing process lives
------------------
     ethr =  2.68E-05,  avg # of iterations =  1.4
     Minimization algorithm failed to find Fermi energy: reverting to bisection
     Possible cause: smearing is larger than the electronic band-gap.

     total cpu time spent up to now is     1136.9 secs

     total energy              =     -79.29429883 Ry
     estimated scf accuracy    <       0.00016106 Ry

     iteration #  4     ecut=    30.00 Ry     beta= 0.40
     Davidson diagonalization with overlap

---- Real-time Memory Report at c_bands before calling an iterative solver
            86 MiB given to the printing process from OS
            57 MiB allocation reported by mallinfo(arena+hblkhd)
         27040 MiB available memory on the node where the printing process lives
------------------
     ethr =  8.95E-07,  avg # of iterations =  4.8
     Minimization algorithm failed to find Fermi energy: reverting to bisection
     Possible cause: smearing is larger than the electronic band-gap.

     total cpu time spent up to now is     1489.9 secs

     total energy              =     -79.29434848 Ry
     estimated scf accuracy    <       0.00001034 Ry

     iteration #  5     ecut=    30.00 Ry     beta= 0.40
     Davidson diagonalization with overlap

---- Real-time Memory Report at c_bands before calling an iterative solver
            86 MiB given to the printing process from OS
            57 MiB allocation reported by mallinfo(arena+hblkhd)
         27042 MiB available memory on the node where the printing process lives
------------------
     ethr =  5.74E-08,  avg # of iterations =  3.3

     total cpu time spent up to now is     1809.1 secs

     total energy              =     -79.29435121 Ry
     estimated scf accuracy    <       0.00000595 Ry

     iteration #  6     ecut=    30.00 Ry     beta= 0.40
     Davidson diagonalization with overlap

---- Real-time Memory Report at c_bands before calling an iterative solver
            86 MiB given to the printing process from OS
            57 MiB allocation reported by mallinfo(arena+hblkhd)
         27071 MiB available memory on the node where the printing process lives
------------------
     ethr =  3.31E-08,  avg # of iterations =  2.0

     total cpu time spent up to now is     2085.8 secs

     total energy              =     -79.29435294 Ry
     estimated scf accuracy    <       0.00000056 Ry

     iteration #  7     ecut=    30.00 Ry     beta= 0.40
     Davidson diagonalization with overlap

---- Real-time Memory Report at c_bands before calling an iterative solver
            87 MiB given to the printing process from OS
            58 MiB allocation reported by mallinfo(arena+hblkhd)
         27074 MiB available memory on the node where the printing process lives
------------------
     ethr =  3.11E-09,  avg # of iterations =  2.1
     Minimization algorithm failed to find Fermi energy: reverting to bisection
     Possible cause: smearing is larger than the electronic band-gap.

     total cpu time spent up to now is     2365.4 secs

     total energy              =     -79.29435310 Ry
     estimated scf accuracy    <       0.00000009 Ry

     iteration #  8     ecut=    30.00 Ry     beta= 0.40
     Davidson diagonalization with overlap

---- Real-time Memory Report at c_bands before calling an iterative solver
            87 MiB given to the printing process from OS
            58 MiB allocation reported by mallinfo(arena+hblkhd)
         27081 MiB available memory on the node where the printing process lives
------------------
     ethr =  5.23E-10,  avg # of iterations =  2.1
     Minimization algorithm failed to find Fermi energy: reverting to bisection
     Possible cause: smearing is larger than the electronic band-gap.

     total cpu time spent up to now is     2614.5 secs

     total energy              =     -79.29435311 Ry
     estimated scf accuracy    <          9.8E-10 Ry

     iteration #  9     ecut=    30.00 Ry     beta= 0.40
     Davidson diagonalization with overlap

---- Real-time Memory Report at c_bands before calling an iterative solver
            87 MiB given to the printing process from OS
            58 MiB allocation reported by mallinfo(arena+hblkhd)
         27074 MiB available memory on the node where the printing process lives
------------------
     ethr =  5.45E-12,  avg # of iterations =  5.3
     Minimization algorithm failed to find Fermi energy: reverting to bisection
     Possible cause: smearing is larger than the electronic band-gap.

     total cpu time spent up to now is     3039.4 secs

     total energy              =     -79.29435311 Ry
     estimated scf accuracy    <          1.1E-09 Ry

     iteration # 10     ecut=    30.00 Ry     beta= 0.40
     Davidson diagonalization with overlap

---- Real-time Memory Report at c_bands before calling an iterative solver
            87 MiB given to the printing process from OS
            58 MiB allocation reported by mallinfo(arena+hblkhd)
         27046 MiB available memory on the node where the printing process lives
------------------
     ethr =  5.45E-12,  avg # of iterations =  2.0
     Minimization algorithm failed to find Fermi energy: reverting to bisection
     Possible cause: smearing is larger than the electronic band-gap.

     total cpu time spent up to now is     3287.1 secs

     End of self-consistent calculation

          k = 0.0000 0.0000 0.0000 (  2005 PWs)   bands (ev):

    -8.2399  -5.0376  -5.0376   2.0730   2.2707   2.2707   3.5352   3.5352
     4.5335   6.2231   6.2231   6.7132  10.1173

     occupation numbers 
     1.0000   1.0000   1.0000   1.0000   1.0000   1.0000   1.0000   1.0000
     1.0217   0.0000   0.0000   0.0000   0.0000

          k = 0.0000 0.0000 0.0975 (  2041 PWs)   bands (ev):

    -8.1842  -5.7073  -4.3640   1.9813   2.1096   2.4910   3.5209   3.6246
     4.5040   6.1091   6.1369   6.5551  10.0382

     occupation numbers 
     1.0000   1.0000   1.0000   1.0000   1.0000   1.0000   1.0000   1.0000
     1.0158   0.0000   0.0000   0.0000   0.0000

          k = 0.0000 0.0000 0.1950 (  2041 PWs)   bands (ev):

    -8.0179  -6.3339  -3.7493   1.6617   2.2123   2.6106   3.6066   3.7533
     4.4106   5.8829   5.9520   6.2116   9.7421

     occupation numbers 
     1.0000   1.0000   1.0000   1.0000   1.0000   1.0000   1.0000   1.0000
     1.0049   0.0000   0.0000   0.0000   0.0000

          k = 0.0000 0.0000 0.2925 (  2030 PWs)   bands (ev):

    -7.7436  -6.8924  -3.2923   1.3883   2.3590   2.6101   3.7897   3.8707
     4.2466   5.7133   5.8003   5.8871   9.4447

     occupation numbers 
     1.0000   1.0000   1.0000   1.0000   1.0000   1.0000   1.0000   1.0000
     1.0003   0.0002   0.0000   0.0000   0.0000

          k = 0.0000 0.0000-0.3899 (  2024 PWs)   bands (ev):

    -7.3659  -7.3659  -3.1178   1.2757   2.5096   2.5096   3.9192   4.0241
     4.0241   5.7062   5.7062   5.7445   9.3327

     occupation numbers 
     1.0000   1.0000   1.0000   1.0000   1.0000   1.0000   1.0000   1.0000
     1.0000   0.0003   0.0003   0.0001   0.0000

          k = 0.0000 0.1050 0.0000 (  2041 PWs)   bands (ev):

    -8.1936  -5.0591  -5.0283   1.6844   2.0373   2.2547   3.6496   3.8841
     4.5693   6.0638   6.1926   6.6748  10.0306

     occupation numbers 
     1.0000   1.0000   1.0000   1.0000   1.0000   1.0000   1.0000   1.0000
     1.0306   0.0000   0.0000   0.0000   0.0000

          k = 0.0000 0.1050 0.0975 (  2041 PWs)   bands (ev):

    -8.1382  -5.6981  -4.3902   1.7468   1.8175   2.3735   3.7362   3.8814
     4.5241   6.0078   6.0600   6.5977   9.7590

     occupation numbers 
     1.0000   1.0000   1.0000   1.0000   1.0000   1.0000   1.0000   1.0000
     1.0196   0.0000   0.0000   0.0000   0.0000

          k = 0.0000 0.1050 0.1950 (  2037 PWs)   bands (ev):

    -7.9731  -6.3118  -3.8053   1.5251   1.9316   2.4846   3.7882   3.8714
     4.3172   5.8512   5.9276   6.5215   9.5676

     occupation numbers 
     1.0000   1.0000   1.0000   1.0000   1.0000   1.0000   1.0000   1.0000
     1.0012   0.0000   0.0000   0.0000   0.0000

          k = 0.0000 0.1050 0.2925 (  2017 PWs)   bands (ev):

    -7.7011  -6.8611  -3.3793   1.3082   2.1564   2.5221   3.7085   3.9121
     4.0772   5.8059   5.8530   6.3845   9.4710

     occupation numbers 
     1.0000   1.0000   1.0000   1.0000   1.0000   1.0000   1.0000   1.0000
     1.0000   0.0000   0.0000   0.0000   0.0000

          k = 0.0000 0.1050-0.3899 (  2032 PWs)   bands (ev):

    -7.3331  -7.3226  -3.2214   1.2288   2.3933   2.4353   3.6282   3.8165
     4.0111   5.8500   5.9504   6.2290   9.4691

     occupation numbers 
     1.0000   1.0000   1.0000   1.0000   1.0000   1.0000   1.0000   1.0000
     1.0000   0.0000   0.0000   0.0000   0.0000

          k = 0.0000 0.2099 0.0000 (  2043 PWs)   bands (ev):

    -8.0601  -5.1341  -5.0022   1.1142   1.6642   2.0757   3.8223   4.1738
     4.4023   6.0821   6.1914   6.7105   9.5680

     occupation numbers 
     1.0000   1.0000   1.0000   1.0000   1.0000   1.0000   1.0000   1.0001
     1.0043   0.0000   0.0000   0.0000   0.0000

          k = 0.0000 0.2099 0.0975 (  2037 PWs)   bands (ev):

    -8.0051  -5.6872  -4.4581   1.1478   1.4380   2.1522   3.8980   4.2787
     4.6180   5.8466   6.0354   6.5820   9.2293

     occupation numbers 
     1.0000   1.0000   1.0000   1.0000   1.0000   1.0000   1.0000   1.0006
     1.0456   0.0000   0.0000   0.0000   0.0000

          k = 0.0000 0.2099 0.1950 (  2035 PWs)   bands (ev):

    -7.8434  -6.2580  -3.9552   1.1400   1.4000   2.2500   3.8774   4.1059
     4.4167   5.9142   6.0720   6.6183   9.1479

     occupation numbers 
     1.0000   1.0000   1.0000   1.0000   1.0000   1.0000   1.0000   1.0000
     1.0053   0.0000   0.0000   0.0000   0.0000

          k = 0.0000 0.2099 0.2925 (  2029 PWs)   bands (ev):

    -7.5782  -6.7775  -3.6112   1.0280   1.6640   2.3048   3.7343   3.7939
     4.0894   6.0088   6.2409   6.8346   9.3551

     occupation numbers 
     1.0000   1.0000   1.0000   1.0000   1.0000   1.0000   1.0000   1.0000
     1.0000   0.0000   0.0000   0.0000   0.0000

          k = 0.0000 0.2099-0.3899 (  2032 PWs)   bands (ev):

    -7.2418  -7.1975  -3.5008   1.0331   2.0205   2.2194   3.4194   3.5655
     3.9199   6.1562   6.4499   6.9871   9.7552

     occupation numbers 
     1.0000   1.0000   1.0000   1.0000   1.0000   1.0000   1.0000   1.0000
     1.0000   0.0000   0.0000   0.0000   0.0000

          k = 0.0000 0.3149 0.0000 (  2031 PWs)   bands (ev):

    -7.8585  -5.2785  -4.9655   0.7168   1.3241   1.8660   3.4683   4.0432
     4.3609   6.1378   6.3087   7.2671   9.0098

     occupation numbers 
     1.0000   1.0000   1.0000   1.0000   1.0000   1.0000   1.0000   1.0000
     1.0023   0.0000   0.0000   0.0000   0.0000

          k = 0.0000 0.3149 0.0975 (  2031 PWs)   bands (ev):

    -7.8039  -5.7042  -4.5553   0.6517   1.1134   1.9195   3.8605   4.2311
     4.3911   5.9911   6.1986   6.8645   8.7825

     occupation numbers 
     1.0000   1.0000   1.0000   1.0000   1.0000   1.0000   1.0000   1.0002
     1.0037   0.0000   0.0000   0.0000   0.0000

          k = 0.0000 0.3149 0.1950 (  2034 PWs)   bands (ev):

    -7.6476  -6.1984  -4.1702   0.5846   1.1104   2.0147   3.7881   3.8803
     4.8470   5.8631   6.4410   6.6139   8.8902

     occupation numbers 
     1.0000   1.0000   1.0000   1.0000   1.0000   1.0000   1.0000   1.0000
     1.0546   0.0000   0.0000   0.0000   0.0000

          k = 0.0000 0.3149 0.2925 (  2034 PWs)   bands (ev):

    -7.3942  -6.6636  -3.9308   0.5311   1.3463   2.0707   3.4662   3.6494
     4.5994   6.1185   6.7451   6.8093   9.2835

     occupation numbers 
     1.0000   1.0000   1.0000   1.0000   1.0000   1.0000   1.0000   1.0000
     1.0395   0.0000   0.0000   0.0000   0.0000

          k = 0.0000 0.3149-0.3899 (  2038 PWs)   bands (ev):

    -7.1144  -7.0078  -3.8787   0.6091   1.6856   1.9632   3.2418   3.4946
     4.0283   6.4387   6.9901   7.2910   9.8086

     occupation numbers 
     1.0000   1.0000   1.0000   1.0000   1.0000   1.0000   1.0000   1.0000
     1.0000   0.0000   0.0000   0.0000   0.0000

          k = 0.0000 0.4199 0.0000 (  2021 PWs)   bands (ev):

    -7.6319  -5.4738  -4.9295   0.5525   1.0756   1.7374   2.7358   4.0261
     4.3308   6.1542   6.2940   8.1023   8.5875

     occupation numbers 
     1.0000   1.0000   1.0000   1.0000   1.0000   1.0000   1.0000   1.0000
     1.0014   0.0000   0.0000   0.0000   0.0000

          k = 0.0000 0.4199 0.0975 (  2030 PWs)   bands (ev):

    -7.5786  -5.7604  -4.6684   0.4238   0.8699   1.7518   3.4358   3.9985
     4.1802   6.1436   6.3723   7.5476   8.5440

     occupation numbers 
     1.0000   1.0000   1.0000   1.0000   1.0000   1.0000   1.0000   1.0000
     1.0001   0.0000   0.0000   0.0000   0.0000

          k = 0.0000 0.4199 0.1950 (  2028 PWs)   bands (ev):

    -7.4309  -6.1525  -4.4124   0.2250   0.9368   1.8362   3.6517   3.6957
     4.4993   6.1338   6.7221   6.9499   8.8765

     occupation numbers 
     1.0000   1.0000   1.0000   1.0000   1.0000   1.0000   1.0000   1.0000
     1.0150   0.0000   0.0000   0.0000   0.0000

          k = 0.0000 0.4199 0.2925 (  2022 PWs)   bands (ev):

    -7.1974  -6.5429  -4.2663   0.0932   1.2075   1.8790   3.2513   3.5271
     4.9930   6.0209   6.7248   7.2112   9.3979

     occupation numbers 
     1.0000   1.0000   1.0000   1.0000   1.0000   1.0000   1.0000   1.0000
     0.8166   0.0000   0.0000   0.0000   0.0000

          k = 0.0000 0.4199-0.3899 (  2024 PWs)   bands (ev):

    -6.9882  -6.7934  -4.2544   0.1374   1.5366   1.7427   3.0660   3.4131
     4.4456   6.5065   7.1422   7.3889   9.8360

     occupation numbers 
     1.0000   1.0000   1.0000   1.0000   1.0000   1.0000   1.0000   1.0000
     1.0078   0.0000   0.0000   0.0000   0.0000

          k = 0.0000 0.5249 0.0000 (  2012 PWs)   bands (ev):

    -7.4653  -5.6316  -4.9070   0.5401   0.9488   1.7763   2.1549   3.9886
     4.3085   6.1495   6.2798   8.3663   8.6735

     occupation numbers 
     1.0000   1.0000   1.0000   1.0000   1.0000   1.0000   1.0000   1.0000
     1.0010   0.0000   0.0000   0.0000   0.0000

          k = 0.0000 0.5249 0.0975 (  2017 PWs)   bands (ev):

    -7.4173  -5.8023  -4.7793   0.4787   0.7324   1.6973   2.8010   3.9131
     4.0998   6.1800   6.4929   8.2466   8.5231

     occupation numbers 
     1.0000   1.0000   1.0000   1.0000   1.0000   1.0000   1.0000   1.0000
     1.0000   0.0000   0.0000   0.0000   0.0000

          k = 0.0000 0.5249 0.1950 (  2017 PWs)   bands (ev):

    -7.2827  -6.1058  -4.6220   0.1561   0.8687   1.7503   3.4624   3.5286
     4.0241   6.3041   6.9755   7.5269   9.0246

     occupation numbers 
     1.0000   1.0000   1.0000   1.0000   1.0000   1.0000   1.0000   1.0000
     1.0000   0.0000   0.0000   0.0000   0.0000

          k = 0.0000 0.5249 0.2925 (  2029 PWs)   bands (ev):

    -7.0753  -6.4332  -4.5211  -0.0939   1.1772   1.7638   3.1224   3.4545
     4.6965   6.3410   6.8527   7.4832   9.5814

     occupation numbers 
     1.0000   1.0000   1.0000   1.0000   1.0000   1.0000   1.0000   1.0000
     1.0718   0.0000   0.0000   0.0000   0.0000

          k = 0.0000 0.5249-0.3899 (  2034 PWs)   bands (ev):

    -6.9082  -6.6353  -4.5040  -0.1477   1.4964   1.6021   2.9714   3.3551
     4.9170   6.1840   7.1081   7.5706   9.8289

     occupation numbers 
     1.0000   1.0000   1.0000   1.0000   1.0000   1.0000   1.0000   1.0000
     0.9719   0.0000   0.0000   0.0000   0.0000

          k = 0.0909 0.1575 0.0000 (  2037 PWs)   bands (ev):

    -8.1036  -5.1019  -5.0164   1.2992   1.6248   2.2778   3.6491   4.2164
     4.5071   5.9529   6.2408   6.7004   9.8202

     occupation numbers 
     1.0000   1.0000   1.0000   1.0000   1.0000   1.0000   1.0000   1.0002
     1.0163   0.0000   0.0000   0.0000   0.0000

          k = 0.0909 0.1575 0.0975 (  2040 PWs)   bands (ev):

    -8.0492  -5.6780  -4.4544   1.3266   1.6050   2.3064   3.6665   4.0464
     4.4322   6.0661   6.2523   6.6656   9.6239

     occupation numbers 
     1.0000   1.0000   1.0000   1.0000   1.0000   1.0000   1.0000   1.0000
     1.0065   0.0000   0.0000   0.0000   0.0000

          k = 0.0909 0.1575 0.1950 (  2037 PWs)   bands (ev):

    -7.8872  -6.2666  -3.9258   1.2988   1.6668   2.3828   3.5673   3.8643
     4.2299   6.0751   6.3466   6.6813   9.5126

     occupation numbers 
     1.0000   1.0000   1.0000   1.0000   1.0000   1.0000   1.0000   1.0000
     1.0002   0.0000   0.0000   0.0000   0.0000

          k = 0.0909 0.1575 0.2925 (  2031 PWs)   bands (ev):

    -7.6206  -6.7987  -3.5504   1.1751   1.9006   2.3985   3.3799   3.7562
     4.1008   5.9064   6.4944   6.7263   9.5831

     occupation numbers 
     1.0000   1.0000   1.0000   1.0000   1.0000   1.0000   1.0000   1.0000
     1.0000   0.0000   0.0000   0.0000   0.0000

          k = 0.0909 0.1575-0.3899 (  2024 PWs)   bands (ev):

    -7.2696  -7.2397  -3.4122   1.1131   2.1696   2.2226   3.4358   3.5484
     4.1136   5.8221   6.5723   6.7207   9.7297

     occupation numbers 
     1.0000   1.0000   1.0000   1.0000   1.0000   1.0000   1.0000   1.0000
     1.0000   0.0000   0.0000   0.0000   0.0000

          k = 0.0909 0.2624 0.0000 (  2033 PWs)   bands (ev):

    -7.9353  -5.2004  -4.9990   0.8843   1.2612   2.1445   3.6190   3.9951
     4.2798   6.2126   6.4792   6.9072   9.3961

     occupation numbers 
     1.0000   1.0000   1.0000   1.0000   1.0000   1.0000   1.0000   1.0000
     1.0006   0.0000   0.0000   0.0000   0.0000

          k = 0.0909 0.2624 0.0975 (  2035 PWs)   bands (ev):

    -7.8816  -5.6764  -4.5444   0.8663   1.2042   2.1104   3.6677   3.9879
     4.5583   6.0506   6.4305   6.7474   9.1684

     occupation numbers 
     1.0000   1.0000   1.0000   1.0000   1.0000   1.0000   1.0000   1.0000
     1.0276   0.0000   0.0000   0.0000   0.0000

          k = 0.0909 0.2624 0.1950 (  2032 PWs)   bands (ev):

    -7.7242  -6.2067  -4.1123   0.8445   1.2467   2.1516   3.3105   4.1039
     4.6653   5.9117   6.5015   6.8146   9.1767

     occupation numbers 
     1.0000   1.0000   1.0000   1.0000   1.0000   1.0000   1.0000   1.0000
     1.0618   0.0000   0.0000   0.0000   0.0000

          k = 0.0909 0.2624 0.2925 (  2031 PWs)   bands (ev):

    -7.4671  -6.6978  -3.8256   0.7975   1.4449   2.1339   3.1429   4.1188
     4.2577   5.9367   6.7743   7.0156   9.4512

     occupation numbers 
     1.0000   1.0000   1.0000   1.0000   1.0000   1.0000   1.0000   1.0000
     1.0004   0.0000   0.0000   0.0000   0.0000

          k = 0.0909 0.2624-0.3899 (  2028 PWs)   bands (ev):

    -7.1561  -7.0854  -3.7373   0.8233   1.7503   1.8951   3.3561   3.5681
     4.1317   6.0485   6.9776   7.2519   9.8568

     occupation numbers 
     1.0000   1.0000   1.0000   1.0000   1.0000   1.0000   1.0000   1.0000
     1.0000   0.0000   0.0000   0.0000   0.0000

          k = 0.0909 0.3674 0.0000 (  2028 PWs)   bands (ev):

    -7.7180  -5.3640  -4.9778   0.6311   1.0427   1.9288   3.1135   3.7808
     4.1219   6.3764   6.6086   7.6299   8.9590

     occupation numbers 
     1.0000   1.0000   1.0000   1.0000   1.0000   1.0000   1.0000   1.0000
     1.0000   0.0000   0.0000   0.0000   0.0000

          k = 0.0909 0.3674 0.0975 (  2025 PWs)   bands (ev):

    -7.6650  -5.7129  -4.6546   0.5107   0.9705   1.8721   3.4822   3.8457
     4.2425   6.2085   6.7226   7.1429   8.8502

     occupation numbers 
     1.0000   1.0000   1.0000   1.0000   1.0000   1.0000   1.0000   1.0000
     1.0003   0.0000   0.0000   0.0000   0.0000

          k = 0.0909 0.3674 0.1950 (  2029 PWs)   bands (ev):

    -7.5144  -6.1545  -4.3398   0.3826   1.0148   1.9309   3.0989   4.1525
     4.7815   5.8911   6.6225   7.0573   9.0572

     occupation numbers 
     1.0000   1.0000   1.0000   1.0000   1.0000   1.0000   1.0000   1.0000
     1.0823   0.0000   0.0000   0.0000   0.0000

          k = 0.0909 0.3674 0.2925 (  2028 PWs)   bands (ev):

    -7.2726  -6.5815  -4.1477   0.3130   1.1828   1.8779   3.0110   4.0717
     4.8106   5.9600   6.6401   7.2770   9.4422

     occupation numbers 
     1.0000   1.0000   1.0000   1.0000   1.0000   1.0000   1.0000   1.0000
     1.0751   0.0000   0.0000   0.0000   0.0000

          k = 0.0909 0.3674-0.3899 (  2022 PWs)   bands (ev):

    -7.0235  -6.8854  -4.1096   0.3782   1.4365   1.6141   3.3200   3.6699
     4.2736   6.3424   7.1446   7.3505   9.8218

     occupation numbers 
     1.0000   1.0000   1.0000   1.0000   1.0000   1.0000   1.0000   1.0000
     1.0005   0.0000   0.0000   0.0000   0.0000

          k = 0.0909 0.4724 0.0000 (  2019 PWs)   bands (ev):

    -7.5129  -5.5447  -4.9597   0.5673   0.9358   1.8103   2.4451   3.7543
     4.0097   6.4057   6.6488   8.3744   8.6715

     occupation numbers 
     1.0000   1.0000   1.0000   1.0000   1.0000   1.0000   1.0000   1.0000
     1.0000   0.0000   0.0000   0.0000   0.0000

          k = 0.0909 0.4724 0.0975 (  2017 PWs)   bands (ev):

    -7.4626  -5.7707  -4.7688   0.4221   0.8121   1.7335   3.1007   3.4728
     4.2170   6.2351   6.8518   7.8661   8.7354

     occupation numbers 
     1.0000   1.0000   1.0000   1.0000   1.0000   1.0000   1.0000   1.0000
     1.0002   0.0000   0.0000   0.0000   0.0000

          k = 0.0909 0.4724 0.1950 (  2024 PWs)   bands (ev):

    -7.3225  -6.1155  -4.5628   0.1721   0.8550   1.8020   2.9816   3.9469
     4.4380   6.1041   7.0368   7.2844   9.1164

     occupation numbers 
     1.0000   1.0000   1.0000   1.0000   1.0000   1.0000   1.0000   1.0000
     1.0071   0.0000   0.0000   0.0000   0.0000

          k = 0.0909 0.4724 0.2925 (  2024 PWs)   bands (ev):

    -7.1034  -6.4705  -4.4389  -0.0028   1.0383   1.6982   2.9838   3.9647
     4.9509   6.0245   6.6807   7.4758   9.5409

     occupation numbers 
     1.0000   1.0000   1.0000   1.0000   1.0000   1.0000   1.0000   1.0000
     0.9102   0.0000   0.0000   0.0000   0.0000

          k = 0.0909 0.4724-0.3899 (  2024 PWs)   bands (ev):

    -6.9148  -6.6960  -4.4226  -0.0023   1.3016   1.4063   3.3215   3.5961
     4.7180   6.3217   7.0095   7.4419   9.8625

     occupation numbers 
     1.0000   1.0000   1.0000   1.0000   1.0000   1.0000   1.0000   1.0000
     1.0775   0.0000   0.0000   0.0000   0.0000

          k = 0.0909 0.5774 0.0000 (  2018 PWs)   bands (ev):

    -7.4224  -5.6299  -4.9527   0.5766   0.9053   1.8855   2.0558   3.7397
     3.9729   6.4006   6.6638   8.5710   8.6894

     occupation numbers 
     1.0000   1.0000   1.0000   1.0000   1.0000   1.0000   1.0000   1.0000
     1.0000   0.0000   0.0000   0.0000   0.0000

          k = 0.0909 0.5774 0.0975 (  2014 PWs)   bands (ev):

    -7.3783  -5.7700  -4.8627   0.5550   0.7486   1.7520   2.5644   3.3902
     4.2577   6.2273   6.8956   8.4340   8.7966

     occupation numbers 
     1.0000   1.0000   1.0000   1.0000   1.0000   1.0000   1.0000   1.0000
     1.0004   0.0000   0.0000   0.0000   0.0000

          k = 0.0909 0.5774 0.1950 (  2014 PWs)   bands (ev):

    -7.2493  -6.0646  -4.7094   0.2502   0.7816   1.7837   2.9207   3.4838
     4.3336   6.2133   7.2312   7.8032   9.2545

     occupation numbers 
     1.0000   1.0000   1.0000   1.0000   1.0000   1.0000   1.0000   1.0000
     1.0015   0.0000   0.0000   0.0000   0.0000

          k = 0.0909 0.5774 0.2925 (  2025 PWs)   bands (ev):

    -7.0487  -6.3906  -4.5933  -0.0395   0.9932   1.6224   3.0399   3.8448
     4.4907   6.4310   6.9535   7.5508   9.6688

     occupation numbers 
     1.0000   1.0000   1.0000   1.0000   1.0000   1.0000   1.0000   1.0000
     1.0136   0.0000   0.0000   0.0000   0.0000

          k = 0.0909 0.5774-0.3899 (  2038 PWs)   bands (ev):

    -6.8723  -6.6124  -4.5507  -0.1460   1.2937   1.3008   3.3354   3.5410
     5.0386   6.0703   7.0251   7.4696   9.8912

     occupation numbers 
     1.0000   1.0000   1.0000   1.0000   1.0000   1.0000   1.0000   1.0000
     0.6991   0.0000   0.0000   0.0000   0.0000

          k = 0.1818 0.3149 0.0000 (  2035 PWs)   bands (ev):

    -7.7491  -5.2961  -5.0259   0.7337   0.9193   2.1461   3.3071   3.6883
     3.7602   6.7669   6.8644   7.2076   9.4086

     occupation numbers 
     1.0000   1.0000   1.0000   1.0000   1.0000   1.0000   1.0000   1.0000
     1.0000   0.0000   0.0000   0.0000   0.0000

          k = 0.1818 0.3149 0.0975 (  2024 PWs)   bands (ev):

    -7.6990  -5.6553  -4.7087   0.6598   1.0396   2.0904   3.0232   3.5546
     4.3747   6.3907   6.8667   7.4009   9.4463

     occupation numbers 
     1.0000   1.0000   1.0000   1.0000   1.0000   1.0000   1.0000   1.0000
     1.0029   0.0000   0.0000   0.0000   0.0000

          k = 0.1818 0.3149 0.1950 (  2025 PWs)   bands (ev):

    -7.5506  -6.1258  -4.3655   0.6093   1.1108   2.0651   2.6430   3.8937
     4.7372   6.0817   6.7187   7.5718   9.5556

     occupation numbers 
     1.0000   1.0000   1.0000   1.0000   1.0000   1.0000   1.0000   1.0000
     1.0812   0.0000   0.0000   0.0000   0.0000

          k = 0.1818 0.3149 0.2925 (  2027 PWs)   bands (ev):

    -7.3094  -6.5748  -4.1339   0.5728   1.1565   1.7602   2.9722   4.2145
     4.3661   6.0987   6.8163   7.5623   9.7417

     occupation numbers 
     1.0000   1.0000   1.0000   1.0000   1.0000   1.0000   1.0000   1.0002
     1.0025   0.0000   0.0000   0.0000   0.0000

          k = 0.1818 0.3149-0.3899 (  2028 PWs)   bands (ev):

    -7.0289  -6.9268  -4.0517   0.5445   1.2980   1.4828   3.5281   3.7650
     4.3807   6.0316   7.1737   7.3765   9.8642

     occupation numbers 
     1.0000   1.0000   1.0000   1.0000   1.0000   1.0000   1.0000   1.0000
     1.0032   0.0000   0.0000   0.0000   0.0000

          k = 0.1818 0.4199 0.0000 (  2024 PWs)   bands (ev):

    -7.5439  -5.4264  -5.0611   0.6553   0.8232   2.0156   2.8236   3.3237
     3.5263   6.9368   7.2300   7.8493   9.2722

     occupation numbers 
     1.0000   1.0000   1.0000   1.0000   1.0000   1.0000   1.0000   1.0000
     1.0000   0.0000   0.0000   0.0000   0.0000

          k = 0.1818 0.4199 0.0975 (  2018 PWs)   bands (ev):

    -7.4951  -5.7014  -4.8245   0.4555   0.9198   1.8826   2.8133   3.4344
     3.9742   6.6998   7.3149   7.5407   9.3141

     occupation numbers 
     1.0000   1.0000   1.0000   1.0000   1.0000   1.0000   1.0000   1.0000
     1.0000   0.0000   0.0000   0.0000   0.0000

          k = 0.1818 0.4199 0.1950 (  2018 PWs)   bands (ev):

    -7.3545  -6.0890  -4.5682   0.2884   0.8911   1.8178   2.5797   4.0412
     4.6485   6.1839   6.8396   7.6565   9.5139

     occupation numbers 
     1.0000   1.0000   1.0000   1.0000   1.0000   1.0000   1.0000   1.0000
     1.0561   0.0000   0.0000   0.0000   0.0000

          k = 0.1818 0.4199 0.2925 (  2022 PWs)   bands (ev):

    -7.1297  -6.4746  -4.4029   0.2055   0.8785   1.4450   3.0575   4.4011
     4.9192   5.8705   6.6247   7.6055   9.7262

     occupation numbers 
     1.0000   1.0000   1.0000   1.0000   1.0000   1.0000   1.0000   1.0042
     0.9683   0.0000   0.0000   0.0000   0.0000

          k = 0.1818 0.4199-0.3899 (  2018 PWs)   bands (ev):

    -6.8990  -6.7565  -4.3573   0.2282   0.9521   1.1695   3.7074   4.0556
     4.5845   6.1433   7.0160   7.2640   9.9876

     occupation numbers 
     1.0000   1.0000   1.0000   1.0000   1.0000   1.0000   1.0000   1.0000
     1.0350   0.0000   0.0000   0.0000   0.0000

          k = 0.1818 0.5249 0.0000 (  2026 PWs)   bands (ev):

    -7.3975  -5.5382  -5.0815   0.6580   0.8458   1.9757   2.2836   3.2320
     3.4131   6.9779   7.3509   8.4183   9.1565

     occupation numbers 
     1.0000   1.0000   1.0000   1.0000   1.0000   1.0000   1.0000   1.0000
     1.0000   0.0000   0.0000   0.0000   0.0000

          k = 0.1818 0.5249 0.0975 (  2021 PWs)   bands (ev):

    -7.3517  -5.7348  -4.9249   0.4670   0.8320   1.8035   2.6603   3.0288
     3.9349   6.7320   7.4876   8.0434   9.2723

     occupation numbers 
     1.0000   1.0000   1.0000   1.0000   1.0000   1.0000   1.0000   1.0000
     1.0000   0.0000   0.0000   0.0000   0.0000

          k = 0.1818 0.5249 0.1950 (  2014 PWs)   bands (ev):

    -7.2200  -6.0592  -4.7274   0.2295   0.7030   1.6770   2.6475   3.7881
     4.5230   6.2872   7.3189   7.6593   9.5201

     occupation numbers 
     1.0000   1.0000   1.0000   1.0000   1.0000   1.0000   1.0000   1.0000
     1.0194   0.0000   0.0000   0.0000   0.0000

          k = 0.1818 0.5249 0.2925 (  2021 PWs)   bands (ev):

    -7.0126  -6.3972  -4.5940   0.0446   0.7101   1.2681   3.2098   4.3786
     4.9066   5.9815   6.7395   7.5295   9.7962

     occupation numbers 
     1.0000   1.0000   1.0000   1.0000   1.0000   1.0000   1.0000   1.0031
     0.9880   0.0000   0.0000   0.0000   0.0000

          k = 0.1818 0.5249-0.3899 (  2032 PWs)   bands (ev):

    -6.8160  -6.6360  -4.5547   0.0003   0.8576   0.9491   3.8584   4.0702
     4.9930   6.0289   6.8381   7.1698  10.1485

     occupation numbers 
     1.0000   1.0000   1.0000   1.0000   1.0000   1.0000   1.0000   1.0000
     0.8165   0.0000   0.0000   0.0000   0.0000

          k = 0.2727 0.4724 0.0000 (  2026 PWs)   bands (ev):

    -7.3901  -5.4494  -5.1846   0.7408   0.7732   2.0729   2.5786   2.8454
     3.1070   7.4141   7.7981   8.0200   9.6530

     occupation numbers 
     1.0000   1.0000   1.0000   1.0000   1.0000   1.0000   1.0000   1.0000
     1.0000   0.0000   0.0000   0.0000   0.0000

          k = 0.2727 0.4724 0.0975 (  2027 PWs)   bands (ev):

    -7.3457  -5.6846  -4.9902   0.4744   0.9108   1.9521   2.3060   3.0941
     3.7192   7.1955   7.5325   8.0778   9.7526

     occupation numbers 
     1.0000   1.0000   1.0000   1.0000   1.0000   1.0000   1.0000   1.0000
     1.0000   0.0000   0.0000   0.0000   0.0000

          k = 0.2727 0.4724 0.1950 (  2016 PWs)   bands (ev):

    -7.2149  -6.0341  -4.7612   0.3007   0.6982   1.5272   2.6234   3.7879
     4.4726   6.5591   7.1661   7.9127   9.9760

     occupation numbers 
     1.0000   1.0000   1.0000   1.0000   1.0000   1.0000   1.0000   1.0000
     1.0109   0.0000   0.0000   0.0000   0.0000

          k = 0.2727 0.4724 0.2925 (  2017 PWs)   bands (ev):

    -7.0057  -6.3871  -4.6047   0.2133   0.5362   1.0592   3.3902   4.4423
     4.9504   5.9596   6.7930   7.4577  10.2115

     occupation numbers 
     1.0000   1.0000   1.0000   1.0000   1.0000   1.0000   1.0000   1.0075
     0.9114   0.0000   0.0000   0.0000   0.0000

          k = 0.2727 0.4724-0.3899 (  2012 PWs)   bands (ev):

    -6.7766  -6.6662  -4.5487   0.1624   0.5876   0.8020   4.0225   4.5828
     4.8309   5.9155   6.8624   6.9215  10.4019

     occupation numbers 
     1.0000   1.0000   1.0000   1.0000   1.0000   1.0000   1.0000   1.0345
     1.0654   0.0000   0.0000   0.0000   0.0000

          k = 0.2727 0.5774 0.0000 (  2016 PWs)   bands (ev):

    -7.3264  -5.4438  -5.2544   0.7627   0.8153   2.2271   2.2699   2.6923
     2.9773   7.5993   7.8789   8.2670   9.7245

     occupation numbers 
     1.0000   1.0000   1.0000   1.0000   1.0000   1.0000   1.0000   1.0000
     1.0000   0.0000   0.0000   0.0000   0.0000

          k = 0.2727 0.5774 0.0975 (  2020 PWs)   bands (ev):

    -7.2831  -5.6858  -5.0503   0.4970   0.8798   1.9186   2.2595   2.9581
     3.5861   7.3503   7.8136   8.0862   9.8218

     occupation numbers 
     1.0000   1.0000   1.0000   1.0000   1.0000   1.0000   1.0000   1.0000
     1.0000   0.0000   0.0000   0.0000   0.0000

          k = 0.2727 0.5774 0.1950 (  2009 PWs)   bands (ev):

    -7.1555  -6.0216  -4.8275   0.3107   0.5951   1.3907   2.7392   3.7319
     4.3443   6.7398   7.4624   7.6959  10.0609

     occupation numbers 
     1.0000   1.0000   1.0000   1.0000   1.0000   1.0000   1.0000   1.0000
     1.0018   0.0000   0.0000   0.0000   0.0000

          k = 0.2727 0.5774 0.2925 (  2021 PWs)   bands (ev):

    -6.9516  -6.3603  -4.6758   0.2082   0.4170   0.9084   3.5414   4.4993
     4.9528   6.0046   6.9027   7.2226  10.4097

     occupation numbers 
     1.0000   1.0000   1.0000   1.0000   1.0000   1.0000   1.0000   1.0150
     0.9065   0.0000   0.0000   0.0000   0.0000

          k = 0.2727 0.5774-0.3899 (  2016 PWs)   bands (ev):

    -6.7180  -6.6404  -4.6215   0.1322   0.5574   0.5747   4.1358   4.7748
     5.1481   5.6396   6.7239   6.8213  10.6762

     occupation numbers 
     1.0000   1.0000   1.0000   1.0000   1.0000   1.0000   1.0000   1.0829
     0.4026   0.0009   0.0000   0.0000   0.0000

          k = 0.0000 0.1050-0.0975 (  2041 PWs)   bands (ev):

    -8.1385  -5.6940  -4.3975   1.6413   2.0569   2.3459   3.5716   3.8822
     4.4115   6.0012   6.2565   6.6614   9.9194

     occupation numbers 
     1.0000   1.0000   1.0000   1.0000   1.0000   1.0000   1.0000   1.0000
     1.0049   0.0000   0.0000   0.0000   0.0000

          k = 0.0000 0.1050-0.1950 (  2037 PWs)   bands (ev):

    -7.9737  -6.3088  -3.8133   1.5145   2.0810   2.5146   3.5452   3.8299
     4.1878   6.0070   6.1617   6.4533   9.7486

     occupation numbers 
     1.0000   1.0000   1.0000   1.0000   1.0000   1.0000   1.0000   1.0000
     1.0001   0.0000   0.0000   0.0000   0.0000

          k = 0.0000 0.1050-0.2925 (  2017 PWs)   bands (ev):

    -7.7021  -6.8591  -3.3851   1.3252   2.2424   2.5519   3.6022   3.7182
     4.0702   5.9890   6.0859   6.1824   9.5510

     occupation numbers 
     1.0000   1.0000   1.0000   1.0000   1.0000   1.0000   1.0000   1.0000
     1.0000   0.0000   0.0000   0.0000   0.0000

          k = 0.0000 0.2099-0.0975 (  2037 PWs)   bands (ev):

    -8.0072  -5.6558  -4.5097   1.1755   1.7971   2.1341   3.6145   3.7663
     4.2206   6.2719   6.5658   6.8351   9.8856

     occupation numbers 
     1.0000   1.0000   1.0000   1.0000   1.0000   1.0000   1.0000   1.0000
     1.0002   0.0000   0.0000   0.0000   0.0000

          k = 0.0000 0.2099-0.1950 (  2035 PWs)   bands (ev):

    -7.8478  -6.2354  -4.0084   1.2422   1.8085   2.3633   3.2545   3.5044
     4.0783   6.3767   6.7683   6.8887   9.8963

     occupation numbers 
     1.0000   1.0000   1.0000   1.0000   1.0000   1.0000   1.0000   1.0000
     1.0000   0.0000   0.0000   0.0000   0.0000

          k = 0.0000 0.2099-0.2925 (  2029 PWs)   bands (ev):

    -7.5854  -6.7616  -3.6476   1.1541   1.9762   2.3724   3.1530   3.4380
     3.9542   6.3291   6.6413   6.9929   9.8957

     occupation numbers 
     1.0000   1.0000   1.0000   1.0000   1.0000   1.0000   1.0000   1.0000
     1.0000   0.0000   0.0000   0.0000   0.0000

          k = 0.0000 0.3149-0.0975 (  2031 PWs)   bands (ev):

    -7.8102  -5.6168  -4.6869   0.8682   1.4659   1.9803   2.8953   3.8084
     4.2308   6.2683   6.7469   7.5966   9.4632

     occupation numbers 
     1.0000   1.0000   1.0000   1.0000   1.0000   1.0000   1.0000   1.0000
     1.0002   0.0000   0.0000   0.0000   0.0000

          k = 0.0000 0.3149-0.1950 (  2034 PWs)   bands (ev):

    -7.6608  -6.1320  -4.2986   1.0007   1.4403   2.2287   2.6569   3.4717
     4.0312   6.5068   7.0446   7.7620   9.8623

     occupation numbers 
     1.0000   1.0000   1.0000   1.0000   1.0000   1.0000   1.0000   1.0000
     1.0000   0.0000   0.0000   0.0000   0.0000

          k = 0.0000 0.3149-0.2925 (  2034 PWs)   bands (ev):

    -7.4158  -6.6163  -4.0130   0.8245   1.6553   2.0531   3.0710   3.2631
     3.8562   6.6265   7.0823   7.6700  10.0357

     occupation numbers 
     1.0000   1.0000   1.0000   1.0000   1.0000   1.0000   1.0000   1.0000
     1.0000   0.0000   0.0000   0.0000   0.0000

          k = 0.0000 0.4199-0.0975 (  2030 PWs)   bands (ev):

    -7.5892  -5.6385  -4.8378   0.7196   1.1287   1.9550   2.2757   3.8556
     4.1642   6.2244   6.6911   8.3597   9.0095

     occupation numbers 
     1.0000   1.0000   1.0000   1.0000   1.0000   1.0000   1.0000   1.0000
     1.0001   0.0000   0.0000   0.0000   0.0000

          k = 0.0000 0.4199-0.1950 (  2028 PWs)   bands (ev):

    -7.4532  -6.0465  -4.5801   0.7184   1.0848   1.9581   2.6601   3.4479
     3.9548   6.4914   7.1495   8.2300   9.5603

     occupation numbers 
     1.0000   1.0000   1.0000   1.0000   1.0000   1.0000   1.0000   1.0000
     1.0000   0.0000   0.0000   0.0000   0.0000

          k = 0.0000 0.4199-0.2925 (  2022 PWs)   bands (ev):

    -7.2328  -6.4655  -4.3691   0.3714   1.4015   1.8319   3.1326   3.2769
     3.8586   6.7688   7.3307   7.7545   9.8741

     occupation numbers 
     1.0000   1.0000   1.0000   1.0000   1.0000   1.0000   1.0000   1.0000
     1.0000   0.0000   0.0000   0.0000   0.0000

          k = 0.0000 0.5249-0.0975 (  2017 PWs)   bands (ev):

    -7.4239  -5.7435  -4.8577   0.6593   0.7877   1.8019   2.3137   3.8820
     4.0974   6.1919   6.5958   8.5939   8.6946

     occupation numbers 
     1.0000   1.0000   1.0000   1.0000   1.0000   1.0000   1.0000   1.0000
     1.0000   0.0000   0.0000   0.0000   0.0000

          k = 0.0000 0.5249-0.1950 (  2017 PWs)   bands (ev):

    -7.2964  -6.0450  -4.7063   0.3622   0.9095   1.7819   3.0227   3.4580
     3.9087   6.4028   7.1183   8.0730   9.2636

     occupation numbers 
     1.0000   1.0000   1.0000   1.0000   1.0000   1.0000   1.0000   1.0000
     1.0000   0.0000   0.0000   0.0000   0.0000

          k = 0.0000 0.5249-0.2925 (  2029 PWs)   bands (ev):

    -7.0961  -6.3873  -4.5727   0.0147   1.2432   1.7434   3.0856   3.4081
     4.1655   6.6984   7.1777   7.5979   9.7384

     occupation numbers 
     1.0000   1.0000   1.0000   1.0000   1.0000   1.0000   1.0000   1.0000
     1.0001   0.0000   0.0000   0.0000   0.0000

          k =-0.0909 0.2624-0.0975 (  2035 PWs)   bands (ev):

    -7.8841  -5.6407  -4.5998   0.9574   1.3459   2.2045   3.3100   3.6156
     4.4861   6.1702   6.7408   7.1112   9.6541

     occupation numbers 
     1.0000   1.0000   1.0000   1.0000   1.0000   1.0000   1.0000   1.0000
     1.0128   0.0000   0.0000   0.0000   0.0000

          k =-0.0909 0.2624-0.1950 (  2032 PWs)   bands (ev):

    -7.7294  -6.1804  -4.1671   1.0257   1.4197   2.2917   2.8874   3.6399
     4.3239   6.3142   6.8046   7.3045   9.7390

     occupation numbers 
     1.0000   1.0000   1.0000   1.0000   1.0000   1.0000   1.0000   1.0000
     1.0013   0.0000   0.0000   0.0000   0.0000

          k =-0.0909 0.2624-0.2925 (  2031 PWs)   bands (ev):

    -7.4756  -6.6792  -3.8615   0.9433   1.5985   2.1194   3.0022   3.6879
     4.0551   6.2562   6.9273   7.3695   9.8778

     occupation numbers 
     1.0000   1.0000   1.0000   1.0000   1.0000   1.0000   1.0000   1.0000
     1.0000   0.0000   0.0000   0.0000   0.0000

          k =-0.0909 0.3674-0.0975 (  2025 PWs)   bands (ev):

    -7.6720  -5.6228  -4.7823   0.7383   1.1507   2.0587   2.6155   3.4936
     4.4318   6.1993   6.8966   7.9612   9.3074

     occupation numbers 
     1.0000   1.0000   1.0000   1.0000   1.0000   1.0000   1.0000   1.0000
     1.0065   0.0000   0.0000   0.0000   0.0000

          k =-0.0909 0.3674-0.1950 (  2029 PWs)   bands (ev):

    -7.5291  -6.0826  -4.4623   0.7942   1.1249   2.0976   2.5601   3.4328
     4.3434   6.3580   7.0671   8.0261   9.7077

     occupation numbers 
     1.0000   1.0000   1.0000   1.0000   1.0000   1.0000   1.0000   1.0000
     1.0018   0.0000   0.0000   0.0000   0.0000

          k =-0.0909 0.3674-0.2925 (  2028 PWs)   bands (ev):

    -7.2963  -6.5296  -4.2238   0.5891   1.2746   1.8124   3.0660   3.5800
     4.0306   6.5750   7.1260   7.7548   9.9595

     occupation numbers 
     1.0000   1.0000   1.0000   1.0000   1.0000   1.0000   1.0000   1.0000
     1.0000   0.0000   0.0000   0.0000   0.0000

          k =-0.0909 0.4724-0.0975 (  2017 PWs)   bands (ev):

    -7.4713  -5.6813  -4.8875   0.6417   0.9345   1.9179   2.2919   3.4138
     4.3346   6.2139   6.9226   8.4980   8.9951

     occupation numbers 
     1.0000   1.0000   1.0000   1.0000   1.0000   1.0000   1.0000   1.0000
     1.0015   0.0000   0.0000   0.0000   0.0000

          k =-0.0909 0.4724-0.1950 (  2024 PWs)   bands (ev):

    -7.3408  -6.0319  -4.6828   0.5346   0.8440   1.8759   2.7294   3.3073
     4.3296   6.2937   7.2312   8.1895   9.4471

     occupation numbers 
     1.0000   1.0000   1.0000   1.0000   1.0000   1.0000   1.0000   1.0000
     1.0014   0.0000   0.0000   0.0000   0.0000

          k =-0.0909 0.4724-0.2925 (  2024 PWs)   bands (ev):

    -7.1318  -6.4084  -4.5119   0.1956   1.0634   1.6574   3.1242   3.6633
     4.1242   6.6287   7.2549   7.6125   9.8288

     occupation numbers 
     1.0000   1.0000   1.0000   1.0000   1.0000   1.0000   1.0000   1.0000
     1.0000   0.0000   0.0000   0.0000   0.0000

          k =-0.1818 0.4199-0.0975 (  2018 PWs)   bands (ev):

    -7.4990  -5.6553  -4.8847   0.5554   0.9753   2.0318   2.4580   3.2024
     4.1801   6.5996   7.1824   8.1138   9.4298

     occupation numbers 
     1.0000   1.0000   1.0000   1.0000   1.0000   1.0000   1.0000   1.0000
     1.0001   0.0000   0.0000   0.0000   0.0000

          k =-0.1818 0.4199-0.1950 (  2018 PWs)   bands (ev):

    -7.3627  -6.0504  -4.6248   0.4801   0.8673   1.8394   2.5106   3.6097
     4.6824   6.1944   7.0928   8.0623   9.7281

     occupation numbers 
     1.0000   1.0000   1.0000   1.0000   1.0000   1.0000   1.0000   1.0000
     1.0675   0.0000   0.0000   0.0000   0.0000

          k =-0.1818 0.4199-0.2925 (  2022 PWs)   bands (ev):

    -7.1429  -6.4463  -4.4372   0.3686   0.8037   1.4240   3.1855   4.1012
     4.4951   6.2872   6.9262   7.6615  10.0120

     occupation numbers 
     1.0000   1.0000   1.0000   1.0000   1.0000   1.0000   1.0000   1.0000
     1.0143   0.0000   0.0000   0.0000   0.0000

          k =-0.1818 0.5249-0.0975 (  2021 PWs)   bands (ev):

    -7.3548  -5.7029  -4.9645   0.5344   0.8614   1.8918   2.4025   2.9751
     4.0286   6.6952   7.3914   8.3868   9.3092

     occupation numbers 
     1.0000   1.0000   1.0000   1.0000   1.0000   1.0000   1.0000   1.0000
     1.0000   0.0000   0.0000   0.0000   0.0000

          k =-0.1818 0.5249-0.1950 (  2014 PWs)   bands (ev):

    -7.2266  -6.0297  -4.7659   0.3816   0.6348   1.6778   2.6682   3.4963
     4.5913   6.2584   7.3988   7.9676   9.5743

     occupation numbers 
     1.0000   1.0000   1.0000   1.0000   1.0000   1.0000   1.0000   1.0000
     1.0370   0.0000   0.0000   0.0000   0.0000

          k =-0.1818 0.5249-0.2925 (  2021 PWs)   bands (ev):

    -7.0230  -6.3751  -4.6172   0.1396   0.6535   1.2632   3.3242   4.1672
     4.6355   6.2326   7.0641   7.4182   9.9509

     occupation numbers 
     1.0000   1.0000   1.0000   1.0000   1.0000   1.0000   1.0000   1.0001
     1.0516   0.0000   0.0000   0.0000   0.0000

     the Fermi energy is     5.1489 ev

!    total energy              =     -79.29435312 Ry
     estimated scf accuracy    <          1.3E-11 Ry
     smearing contrib. (-TS)   =       0.00118416 Ry
     internal energy E=F+TS    =     -79.29553727 Ry

     The total energy is F=E-TS. E is the sum of the following terms:
     one-electron contribution =       8.23050758 Ry
     hartree contribution      =       3.66507540 Ry
     xc contribution           =     -42.88897392 Ry
     ewald contribution        =     -48.30214633 Ry

     convergence has been achieved in  10 iterations

     Forces acting on atoms (cartesian axes, Ry/au):

     atom    1 type  1   force =     0.00939067    0.00000000    0.00000000
     atom    2 type  1   force =    -0.00469534    0.00813256    0.00000000
     atom    3 type  1   force =    -0.00469534   -0.00813256    0.00000000
     The non-local contrib.  to forces
     atom    1 type  1   force =     0.15967002    0.00000000    0.00000000
     atom    2 type  1   force =    -0.07983501    0.13827829    0.00000000
     atom    3 type  1   force =    -0.07983501   -0.13827829    0.00000000
     The ionic contribution  to forces
     atom    1 type  1   force =     0.85520447    0.00000002    0.00000008
     atom    2 type  1   force =    -0.42760222    0.74062881   -0.00000008
     atom    3 type  1   force =    -0.42760225   -0.74062882   -0.00000000
     The local contribution  to forces
     atom    1 type  1   force =    -1.02635325   -0.00000000   -0.00000000
     atom    2 type  1   force =     0.51317659   -0.88884800   -0.00000028
     atom    3 type  1   force =     0.51317665    0.88884797   -0.00000016
     The core correction contribution to forces
     atom    1 type  1   force =     0.02086673   -0.00000000   -0.00000000
     atom    2 type  1   force =    -0.01043336    0.01807112    0.00000002
     atom    3 type  1   force =    -0.01043336   -0.01807111    0.00000001
     The Hubbard contrib.    to forces
     atom    1 type  1   force =     0.00000000    0.00000000    0.00000000
     atom    2 type  1   force =     0.00000000    0.00000000    0.00000000
     atom    3 type  1   force =     0.00000000    0.00000000    0.00000000
     The SCF correction term to forces
     atom    1 type  1   force =     0.00000269    0.00000000    0.00000000
     atom    2 type  1   force =    -0.00000135    0.00000233   -0.00000000
     atom    3 type  1   force =    -0.00000135   -0.00000233   -0.00000000

     Total force =     0.016265     Total SCF correction =     0.000005


     Computing stress (Cartesian axis) and pressure

          total   stress  (Ry/bohr**3)                   (kbar)     P=      -16.27
  -0.00011903   0.00000000   0.00000000          -17.51        0.00        0.00
   0.00000000  -0.00011903   0.00000000            0.00      -17.51        0.00
   0.00000000   0.00000000  -0.00009374            0.00        0.00      -13.79

     kinetic stress (kbar)   1904.35      0.00      0.00
                                0.00   1904.35     -0.00
                                0.00     -0.00   1805.75

     local   stress (kbar)   7415.22     -0.00     -0.00
                               -0.00   7415.22      0.00
                               -0.00      0.00   6554.44

     nonloc. stress (kbar)  -4828.22      0.00      0.00
                                0.00  -4828.22      0.00
                                0.00      0.00  -4750.72

     hartree stress (kbar)    182.84     -0.00     -0.00
                               -0.00    182.84      0.00
                               -0.00      0.00    372.83

     exc-cor stress (kbar)   5387.39      0.00      0.00
                                0.00   5387.39     -0.00
                                0.00     -0.00   5387.74

     corecor stress (kbar)  -6605.64     -0.00     -0.00
                               -0.00  -6605.64      0.00
                               -0.00      0.00  -6597.89

     ewald   stress (kbar)  -3473.44      0.00      0.00
                                0.00  -3473.44     -0.00
                                0.00     -0.00  -2785.94

     hubbard stress (kbar)      0.00      0.00      0.00
                                0.00      0.00      0.00
                                0.00      0.00      0.00

     DFT-D   stress (kbar)      0.00      0.00      0.00
                                0.00      0.00      0.00
                                0.00      0.00      0.00

     XDM     stress (kbar)      0.00      0.00      0.00
                                0.00      0.00      0.00
                                0.00      0.00      0.00

     dft-nl  stress (kbar)      0.00      0.00      0.00
                                0.00      0.00      0.00
                                0.00      0.00      0.00

     TS-vdW  stress (kbar)      0.00      0.00      0.00
                                0.00      0.00      0.00
                                0.00      0.00      0.00

     MDB     stress (kbar)      0.00      0.00      0.00
                                0.00      0.00      0.00
                                0.00      0.00      0.00

     3D-RISM stress (kbar)      0.00      0.00      0.00
                                0.00      0.00      0.00
                                0.00      0.00      0.00


     Writing all to output data dir ./out/aiida.save/ :
     XML data file, charge density, pseudopotentials, collected wavefunctions

     init_run     :     85.11s CPU     82.73s WALL (       1 calls)
     electrons    :   3323.06s CPU   3204.15s WALL (       1 calls)
     forces       :     45.04s CPU     43.46s WALL (       1 calls)
     stress       :    120.51s CPU    119.86s WALL (       1 calls)

     Called by init_run:
     wfcinit      :     83.94s CPU     81.52s WALL (       1 calls)
     wfcinit:atom :      0.09s CPU      0.07s WALL (     110 calls)
     wfcinit:wfcr :     83.74s CPU     81.35s WALL (     110 calls)
     potinit      :      0.29s CPU      0.30s WALL (       1 calls)
     hinit0       :      0.43s CPU      0.44s WALL (       1 calls)

     Called by electrons:
     c_bands      :   2944.41s CPU   2833.18s WALL (      11 calls)
     sum_band     :    362.27s CPU    354.60s WALL (      11 calls)
     v_of_rho     :      1.58s CPU      1.55s WALL (      11 calls)
     v_h          :      0.17s CPU      0.17s WALL (      11 calls)
     v_xc         :      1.75s CPU      1.76s WALL (      13 calls)
     newd         :     14.38s CPU     14.35s WALL (      11 calls)
     mix_rho      :      0.30s CPU      0.30s WALL (      11 calls)

     Called by c_bands:
     init_us_2    :      1.98s CPU      1.85s WALL (    2750 calls)
     cegterg      :   2907.41s CPU   2800.46s WALL (    1210 calls)

     Called by sum_band:
     sum_band:wei :      0.20s CPU      0.20s WALL (      11 calls)
     sum_band:loo :    359.31s CPU    351.64s WALL (      11 calls)
     sum_band:buf :      0.11s CPU      0.11s WALL (    1210 calls)
     sum_band:ini :      0.78s CPU      0.78s WALL (    1210 calls)
     sum_band:cal :    110.33s CPU     97.25s WALL (    1210 calls)
     sum_band:bec :      0.03s CPU      0.03s WALL (    1210 calls)
     addusdens    :      1.86s CPU      1.87s WALL (      11 calls)
                                        0.00s GPU  (      11 calls)
     addusd:skk   :      0.02s CPU      0.01s WALL (      11 calls)
                                        0.00s GPU  (      11 calls)

     Called by *egterg:
     cdiaghg      :    177.52s CPU    185.15s WALL (    4992 calls)
     cegterg:over :    363.25s CPU    325.41s WALL (    3892 calls)
     cegterg:upda :     42.93s CPU     46.72s WALL (    3892 calls)
     cegterg:last :     37.51s CPU     42.49s WALL (    2564 calls)
     h_psi        :   1980.29s CPU   1915.54s WALL (    5212 calls)
     s_psi        :     32.86s CPU     37.84s WALL (    5212 calls)
     g_psi        :     13.15s CPU     12.69s WALL (    3892 calls)

     Called by h_psi:
     h_psi:calbec :    415.12s CPU    358.10s WALL (    5212 calls)
     vloc_psi     :   1517.97s CPU   1503.93s WALL (    5212 calls)
     add_vuspsi   :     31.53s CPU     37.40s WALL (    5212 calls)

     General routines
     calbec       :    678.23s CPU    606.80s WALL (    8292 calls)
     fft          :      1.92s CPU      1.96s WALL (     167 calls)
     ffts         :      0.32s CPU      0.33s WALL (      22 calls)
     fftw         :   1498.63s CPU   1478.04s WALL (  103674 calls)
     interpolate  :      0.27s CPU      0.27s WALL (      11 calls)

     Parallel routines

     PWSCF        :  59m34.88s CPU  57m32.37s WALL


   This run was terminated on:  17: 1:48  17Nov2025            

=------------------------------------------------------------------------------=
   JOB DONE.
=------------------------------------------------------------------------------=
