(written by ASE)

2048 atoms
1 atom types

0.0      45.600000000000001  xlo xhi
0.0      45.600000000000001  ylo yhi
0.0      45.600000000000001  zlo zhi

Atoms # atomic

     1   1                       0                       0                       0
     2   1                       0      2.8500000000000001      2.8500000000000001
     3   1      2.8500000000000001                       0      2.8500000000000001
     4   1      2.8500000000000001      2.8500000000000001                       0
     5   1                       0                       0      5.7000000000000002
     6   1                       0      2.8500000000000001      8.5500000000000007
     7   1      2.8500000000000001                       0      8.5500000000000007
     8   1      2.8500000000000001      2.8500000000000001      5.7000000000000002
     9   1                       0                       0                    11.4
    10   1                       0      2.8500000000000001                   14.25
    11   1      2.8500000000000001                       0                   14.25
    12   1      2.8500000000000001      2.8500000000000001                    11.4
    13   1                       0                       0      17.100000000000001
    14   1                       0      2.8500000000000001      19.950000000000003
    15   1      2.8500000000000001                       0      19.950000000000003
    16   1      2.8500000000000001      2.8500000000000001      17.100000000000001
    17   1                       0                       0      22.800000000000001
    18   1                       0      2.8500000000000001      25.650000000000002
    19   1      2.8500000000000001                       0      25.650000000000002
    20   1      2.8500000000000001      2.8500000000000001      22.800000000000001
    21   1                       0                       0                    28.5
    22   1                       0      2.8500000000000001      31.350000000000001
    23   1      2.8500000000000001                       0      31.350000000000001
    24   1      2.8500000000000001      2.8500000000000001                    28.5
    25   1                       0                       0      34.200000000000003
    26   1                       0      2.8500000000000001      37.050000000000004
    27   1      2.8500000000000001                       0      37.050000000000004
    28   1      2.8500000000000001      2.8500000000000001      34.200000000000003
    29   1                       0                       0      39.899999999999999
    30   1                       0      2.8500000000000001                   42.75
    31   1      2.8500000000000001                       0                   42.75
    32   1      2.8500000000000001      2.8500000000000001      39.899999999999999
    33   1                       0      5.7000000000000002                       0
    34   1                       0      8.5500000000000007      2.8500000000000001
    35   1      2.8500000000000001      5.7000000000000002      2.8500000000000001
    36   1      2.8500000000000001      8.5500000000000007                       0
    37   1                       0      5.7000000000000002      5.7000000000000002
    38   1                       0      8.5500000000000007      8.5500000000000007
    39   1      2.8500000000000001      5.7000000000000002      8.5500000000000007
    40   1      2.8500000000000001      8.5500000000000007      5.7000000000000002
    41   1                       0      5.7000000000000002                    11.4
    42   1                       0      8.5500000000000007                   14.25
    43   1      2.8500000000000001      5.7000000000000002                   14.25
    44   1      2.8500000000000001      8.5500000000000007                    11.4
    45   1                       0      5.7000000000000002      17.100000000000001
    46   1                       0      8.5500000000000007      19.950000000000003
    47   1      2.8500000000000001      5.7000000000000002      19.950000000000003
    48   1      2.8500000000000001      8.5500000000000007      17.100000000000001
    49   1                       0      5.7000000000000002      22.800000000000001
    50   1                       0      8.5500000000000007      25.650000000000002
    51   1      2.8500000000000001      5.7000000000000002      25.650000000000002
    52   1      2.8500000000000001      8.5500000000000007      22.800000000000001
    53   1                       0      5.7000000000000002                    28.5
    54   1                       0      8.5500000000000007      31.350000000000001
    55   1      2.8500000000000001      5.7000000000000002      31.350000000000001
    56   1      2.8500000000000001      8.5500000000000007                    28.5
    57   1                       0      5.7000000000000002      34.200000000000003
    58   1                       0      8.5500000000000007      37.050000000000004
    59   1      2.8500000000000001      5.7000000000000002      37.050000000000004
    60   1      2.8500000000000001      8.5500000000000007      34.200000000000003
    61   1                       0      5.7000000000000002      39.899999999999999
    62   1                       0      8.5500000000000007                   42.75
    63   1      2.8500000000000001      5.7000000000000002                   42.75
    64   1      2.8500000000000001      8.5500000000000007      39.899999999999999
    65   1                       0                    11.4                       0
    66   1                       0                   14.25      2.8500000000000001
    67   1      2.8500000000000001                    11.4      2.8500000000000001
    68   1      2.8500000000000001                   14.25                       0
    69   1                       0                    11.4      5.7000000000000002
    70   1                       0                   14.25      8.5500000000000007
    71   1      2.8500000000000001                    11.4      8.5500000000000007
    72   1      2.8500000000000001                   14.25      5.7000000000000002
    73   1                       0                    11.4                    11.4
    74   1                       0                   14.25                   14.25
    75   1      2.8500000000000001                    11.4                   14.25
    76   1      2.8500000000000001                   14.25                    11.4
    77   1                       0                    11.4      17.100000000000001
    78   1                       0                   14.25      19.950000000000003
    79   1      2.8500000000000001                    11.4      19.950000000000003
    80   1      2.8500000000000001                   14.25      17.100000000000001
    81   1                       0                    11.4      22.800000000000001
    82   1                       0                   14.25      25.650000000000002
    83   1      2.8500000000000001                    11.4      25.650000000000002
    84   1      2.8500000000000001                   14.25      22.800000000000001
    85   1                       0                    11.4                    28.5
    86   1                       0                   14.25      31.350000000000001
    87   1      2.8500000000000001                    11.4      31.350000000000001
    88   1      2.8500000000000001                   14.25                    28.5
    89   1                       0                    11.4      34.200000000000003
    90   1                       0                   14.25      37.050000000000004
    91   1      2.8500000000000001                    11.4      37.050000000000004
    92   1      2.8500000000000001                   14.25      34.200000000000003
    93   1                       0                    11.4      39.899999999999999
    94   1                       0                   14.25                   42.75
    95   1      2.8500000000000001                    11.4                   42.75
    96   1      2.8500000000000001                   14.25      39.899999999999999
    97   1                       0      17.100000000000001                       0
    98   1                       0      19.950000000000003      2.8500000000000001
    99   1      2.8500000000000001      17.100000000000001      2.8500000000000001
   100   1      2.8500000000000001      19.950000000000003                       0
   101   1                       0      17.100000000000001      5.7000000000000002
   102   1                       0      19.950000000000003      8.5500000000000007
   103   1      2.8500000000000001      17.100000000000001      8.5500000000000007
   104   1      2.8500000000000001      19.950000000000003      5.7000000000000002
   105   1                       0      17.100000000000001                    11.4
   106   1                       0      19.950000000000003                   14.25
   107   1      2.8500000000000001      17.100000000000001                   14.25
   108   1      2.8500000000000001      19.950000000000003                    11.4
   109   1                       0      17.100000000000001      17.100000000000001
   110   1                       0      19.950000000000003      19.950000000000003
   111   1      2.8500000000000001      17.100000000000001      19.950000000000003
   112   1      2.8500000000000001      19.950000000000003      17.100000000000001
   113   1                       0      17.100000000000001      22.800000000000001
   114   1                       0      19.950000000000003      25.650000000000002
   115   1      2.8500000000000001      17.100000000000001      25.650000000000002
   116   1      2.8500000000000001      19.950000000000003      22.800000000000001
   117   1                       0      17.100000000000001                    28.5
   118   1                       0      19.950000000000003      31.350000000000001
   119   1      2.8500000000000001      17.100000000000001      31.350000000000001
   120   1      2.8500000000000001      19.950000000000003                    28.5
   121   1                       0      17.100000000000001      34.200000000000003
   122   1                       0      19.950000000000003      37.050000000000004
   123   1      2.8500000000000001      17.100000000000001      37.050000000000004
   124   1      2.8500000000000001      19.950000000000003      34.200000000000003
   125   1                       0      17.100000000000001      39.899999999999999
   126   1                       0      19.950000000000003                   42.75
   127   1      2.8500000000000001      17.100000000000001                   42.75
   128   1      2.8500000000000001      19.950000000000003      39.899999999999999
   129   1                       0      22.800000000000001                       0
   130   1                       0      25.650000000000002      2.8500000000000001
   131   1      2.8500000000000001      22.800000000000001      2.8500000000000001
   132   1      2.8500000000000001      25.650000000000002                       0
   133   1                       0      22.800000000000001      5.7000000000000002
   134   1                       0      25.650000000000002      8.5500000000000007
   135   1      2.8500000000000001      22.800000000000001      8.5500000000000007
   136   1      2.8500000000000001      25.650000000000002      5.7000000000000002
   137   1                       0      22.800000000000001                    11.4
   138   1                       0      25.650000000000002                   14.25
   139   1      2.8500000000000001      22.800000000000001                   14.25
   140   1      2.8500000000000001      25.650000000000002                    11.4
   141   1                       0      22.800000000000001      17.100000000000001
   142   1                       0      25.650000000000002      19.950000000000003
   143   1      2.8500000000000001      22.800000000000001      19.950000000000003
   144   1      2.8500000000000001      25.650000000000002      17.100000000000001
   145   1                       0      22.800000000000001      22.800000000000001
   146   1                       0      25.650000000000002      25.650000000000002
   147   1      2.8500000000000001      22.800000000000001      25.650000000000002
   148   1      2.8500000000000001      25.650000000000002      22.800000000000001
   149   1                       0      22.800000000000001                    28.5
   150   1                       0      25.650000000000002      31.350000000000001
   151   1      2.8500000000000001      22.800000000000001      31.350000000000001
   152   1      2.8500000000000001      25.650000000000002                    28.5
   153   1                       0      22.800000000000001      34.200000000000003
   154   1                       0      25.650000000000002      37.050000000000004
   155   1      2.8500000000000001      22.800000000000001      37.050000000000004
   156   1      2.8500000000000001      25.650000000000002      34.200000000000003
   157   1                       0      22.800000000000001      39.899999999999999
   158   1                       0      25.650000000000002                   42.75
   159   1      2.8500000000000001      22.800000000000001                   42.75
   160   1      2.8500000000000001      25.650000000000002      39.899999999999999
   161   1                       0                    28.5                       0
   162   1                       0      31.350000000000001      2.8500000000000001
   163   1      2.8500000000000001                    28.5      2.8500000000000001
   164   1      2.8500000000000001      31.350000000000001                       0
   165   1                       0                    28.5      5.7000000000000002
   166   1                       0      31.350000000000001      8.5500000000000007
   167   1      2.8500000000000001                    28.5      8.5500000000000007
   168   1      2.8500000000000001      31.350000000000001      5.7000000000000002
   169   1                       0                    28.5                    11.4
   170   1                       0      31.350000000000001                   14.25
   171   1      2.8500000000000001                    28.5                   14.25
   172   1      2.8500000000000001      31.350000000000001                    11.4
   173   1                       0                    28.5      17.100000000000001
   174   1                       0      31.350000000000001      19.950000000000003
   175   1      2.8500000000000001                    28.5      19.950000000000003
   176   1      2.8500000000000001      31.350000000000001      17.100000000000001
   177   1                       0                    28.5      22.800000000000001
   178   1                       0      31.350000000000001      25.650000000000002
   179   1      2.8500000000000001                    28.5      25.650000000000002
   180   1      2.8500000000000001      31.350000000000001      22.800000000000001
   181   1                       0                    28.5                    28.5
   182   1                       0      31.350000000000001      31.350000000000001
   183   1      2.8500000000000001                    28.5      31.350000000000001
   184   1      2.8500000000000001      31.350000000000001                    28.5
   185   1                       0                    28.5      34.200000000000003
   186   1                       0      31.350000000000001      37.050000000000004
   187   1      2.8500000000000001                    28.5      37.050000000000004
   188   1      2.8500000000000001      31.350000000000001      34.200000000000003
   189   1                       0                    28.5      39.899999999999999
   190   1                       0      31.350000000000001                   42.75
   191   1      2.8500000000000001                    28.5                   42.75
   192   1      2.8500000000000001      31.350000000000001      39.899999999999999
   193   1                       0      34.200000000000003                       0
   194   1                       0      37.050000000000004      2.8500000000000001
   195   1      2.8500000000000001      34.200000000000003      2.8500000000000001
   196   1      2.8500000000000001      37.050000000000004                       0
   197   1                       0      34.200000000000003      5.7000000000000002
   198   1                       0      37.050000000000004      8.5500000000000007
   199   1      2.8500000000000001      34.200000000000003      8.5500000000000007
   200   1      2.8500000000000001      37.050000000000004      5.7000000000000002
   201   1                       0      34.200000000000003                    11.4
   202   1                       0      37.050000000000004                   14.25
   203   1      2.8500000000000001      34.200000000000003                   14.25
   204   1      2.8500000000000001      37.050000000000004                    11.4
   205   1                       0      34.200000000000003      17.100000000000001
   206   1                       0      37.050000000000004      19.950000000000003
   207   1      2.8500000000000001      34.200000000000003      19.950000000000003
   208   1      2.8500000000000001      37.050000000000004      17.100000000000001
   209   1                       0      34.200000000000003      22.800000000000001
   210   1                       0      37.050000000000004      25.650000000000002
   211   1      2.8500000000000001      34.200000000000003      25.650000000000002
   212   1      2.8500000000000001      37.050000000000004      22.800000000000001
   213   1                       0      34.200000000000003                    28.5
   214   1                       0      37.050000000000004      31.350000000000001
   215   1      2.8500000000000001      34.200000000000003      31.350000000000001
   216   1      2.8500000000000001      37.050000000000004                    28.5
   217   1                       0      34.200000000000003      34.200000000000003
   218   1                       0      37.050000000000004      37.050000000000004
   219   1      2.8500000000000001      34.200000000000003      37.050000000000004
   220   1      2.8500000000000001      37.050000000000004      34.200000000000003
   221   1                       0      34.200000000000003      39.899999999999999
   222   1                       0      37.050000000000004                   42.75
   223   1      2.8500000000000001      34.200000000000003                   42.75
   224   1      2.8500000000000001      37.050000000000004      39.899999999999999
   225   1                       0      39.899999999999999                       0
   226   1                       0                   42.75      2.8500000000000001
   227   1      2.8500000000000001      39.899999999999999      2.8500000000000001
   228   1      2.8500000000000001                   42.75                       0
   229   1                       0      39.899999999999999      5.7000000000000002
   230   1                       0                   42.75      8.5500000000000007
   231   1      2.8500000000000001      39.899999999999999      8.5500000000000007
   232   1      2.8500000000000001                   42.75      5.7000000000000002
   233   1                       0      39.899999999999999                    11.4
   234   1                       0                   42.75                   14.25
   235   1      2.8500000000000001      39.899999999999999                   14.25
   236   1      2.8500000000000001                   42.75                    11.4
   237   1                       0      39.899999999999999      17.100000000000001
   238   1                       0                   42.75      19.950000000000003
   239   1      2.8500000000000001      39.899999999999999      19.950000000000003
   240   1      2.8500000000000001                   42.75      17.100000000000001
   241   1                       0      39.899999999999999      22.800000000000001
   242   1                       0                   42.75      25.650000000000002
   243   1      2.8500000000000001      39.899999999999999      25.650000000000002
   244   1      2.8500000000000001                   42.75      22.800000000000001
   245   1                       0      39.899999999999999                    28.5
   246   1                       0                   42.75      31.350000000000001
   247   1      2.8500000000000001      39.899999999999999      31.350000000000001
   248   1      2.8500000000000001                   42.75                    28.5
   249   1                       0      39.899999999999999      34.200000000000003
   250   1                       0                   42.75      37.050000000000004
   251   1      2.8500000000000001      39.899999999999999      37.050000000000004
   252   1      2.8500000000000001                   42.75      34.200000000000003
   253   1                       0      39.899999999999999      39.899999999999999
   254   1                       0                   42.75                   42.75
   255   1      2.8500000000000001      39.899999999999999                   42.75
   256   1      2.8500000000000001                   42.75      39.899999999999999
   257   1      5.7000000000000002                       0                       0
   258   1      5.7000000000000002      2.8500000000000001      2.8500000000000001
   259   1      8.5500000000000007                       0      2.8500000000000001
   260   1      8.5500000000000007      2.8500000000000001                       0
   261   1      5.7000000000000002                       0      5.7000000000000002
   262   1      5.7000000000000002      2.8500000000000001      8.5500000000000007
   263   1      8.5500000000000007                       0      8.5500000000000007
   264   1      8.5500000000000007      2.8500000000000001      5.7000000000000002
   265   1      5.7000000000000002                       0                    11.4
   266   1      5.7000000000000002      2.8500000000000001                   14.25
   267   1      8.5500000000000007                       0                   14.25
   268   1      8.5500000000000007      2.8500000000000001                    11.4
   269   1      5.7000000000000002                       0      17.100000000000001
   270   1      5.7000000000000002      2.8500000000000001      19.950000000000003
   271   1      8.5500000000000007                       0      19.950000000000003
   272   1      8.5500000000000007      2.8500000000000001      17.100000000000001
   273   1      5.7000000000000002                       0      22.800000000000001
   274   1      5.7000000000000002      2.8500000000000001      25.650000000000002
   275   1      8.5500000000000007                       0      25.650000000000002
   276   1      8.5500000000000007      2.8500000000000001      22.800000000000001
   277   1      5.7000000000000002                       0                    28.5
   278   1      5.7000000000000002      2.8500000000000001      31.350000000000001
   279   1      8.5500000000000007                       0      31.350000000000001
   280   1      8.5500000000000007      2.8500000000000001                    28.5
   281   1      5.7000000000000002                       0      34.200000000000003
   282   1      5.7000000000000002      2.8500000000000001      37.050000000000004
   283   1      8.5500000000000007                       0      37.050000000000004
   284   1      8.5500000000000007      2.8500000000000001      34.200000000000003
   285   1      5.7000000000000002                       0      39.899999999999999
   286   1      5.7000000000000002      2.8500000000000001                   42.75
   287   1      8.5500000000000007                       0                   42.75
   288   1      8.5500000000000007      2.8500000000000001      39.899999999999999
   289   1      5.7000000000000002      5.7000000000000002                       0
   290   1      5.7000000000000002      8.5500000000000007      2.8500000000000001
   291   1      8.5500000000000007      5.7000000000000002      2.8500000000000001
   292   1      8.5500000000000007      8.5500000000000007                       0
   293   1      5.7000000000000002      5.7000000000000002      5.7000000000000002
   294   1      5.7000000000000002      8.5500000000000007      8.5500000000000007
   295   1      8.5500000000000007      5.7000000000000002      8.5500000000000007
   296   1      8.5500000000000007      8.5500000000000007      5.7000000000000002
   297   1      5.7000000000000002      5.7000000000000002                    11.4
   298   1      5.7000000000000002      8.5500000000000007                   14.25
   299   1      8.5500000000000007      5.7000000000000002                   14.25
   300   1      8.5500000000000007      8.5500000000000007                    11.4
   301   1      5.7000000000000002      5.7000000000000002      17.100000000000001
   302   1      5.7000000000000002      8.5500000000000007      19.950000000000003
   303   1      8.5500000000000007      5.7000000000000002      19.950000000000003
   304   1      8.5500000000000007      8.5500000000000007      17.100000000000001
   305   1      5.7000000000000002      5.7000000000000002      22.800000000000001
   306   1      5.7000000000000002      8.5500000000000007      25.650000000000002
   307   1      8.5500000000000007      5.7000000000000002      25.650000000000002
   308   1      8.5500000000000007      8.5500000000000007      22.800000000000001
   309   1      5.7000000000000002      5.7000000000000002                    28.5
   310   1      5.7000000000000002      8.5500000000000007      31.350000000000001
   311   1      8.5500000000000007      5.7000000000000002      31.350000000000001
   312   1      8.5500000000000007      8.5500000000000007                    28.5
   313   1      5.7000000000000002      5.7000000000000002      34.200000000000003
   314   1      5.7000000000000002      8.5500000000000007      37.050000000000004
   315   1      8.5500000000000007      5.7000000000000002      37.050000000000004
   316   1      8.5500000000000007      8.5500000000000007      34.200000000000003
   317   1      5.7000000000000002      5.7000000000000002      39.899999999999999
   318   1      5.7000000000000002      8.5500000000000007                   42.75
   319   1      8.5500000000000007      5.7000000000000002                   42.75
   320   1      8.5500000000000007      8.5500000000000007      39.899999999999999
   321   1      5.7000000000000002                    11.4                       0
   322   1      5.7000000000000002                   14.25      2.8500000000000001
   323   1      8.5500000000000007                    11.4      2.8500000000000001
   324   1      8.5500000000000007                   14.25                       0
   325   1      5.7000000000000002                    11.4      5.7000000000000002
   326   1      5.7000000000000002                   14.25      8.5500000000000007
   327   1      8.5500000000000007                    11.4      8.5500000000000007
   328   1      8.5500000000000007                   14.25      5.7000000000000002
   329   1      5.7000000000000002                    11.4                    11.4
   330   1      5.7000000000000002                   14.25                   14.25
   331   1      8.5500000000000007                    11.4                   14.25
   332   1      8.5500000000000007                   14.25                    11.4
   333   1      5.7000000000000002                    11.4      17.100000000000001
   334   1      5.7000000000000002                   14.25      19.950000000000003
   335   1      8.5500000000000007                    11.4      19.950000000000003
   336   1      8.5500000000000007                   14.25      17.100000000000001
   337   1      5.7000000000000002                    11.4      22.800000000000001
   338   1      5.7000000000000002                   14.25      25.650000000000002
   339   1      8.5500000000000007                    11.4      25.650000000000002
   340   1      8.5500000000000007                   14.25      22.800000000000001
   341   1      5.7000000000000002                    11.4                    28.5
   342   1      5.7000000000000002                   14.25      31.350000000000001
   343   1      8.5500000000000007                    11.4      31.350000000000001
   344   1      8.5500000000000007                   14.25                    28.5
   345   1      5.7000000000000002                    11.4      34.200000000000003
   346   1      5.7000000000000002                   14.25      37.050000000000004
   347   1      8.5500000000000007                    11.4      37.050000000000004
   348   1      8.5500000000000007                   14.25      34.200000000000003
   349   1      5.7000000000000002                    11.4      39.899999999999999
   350   1      5.7000000000000002                   14.25                   42.75
   351   1      8.5500000000000007                    11.4                   42.75
   352   1      8.5500000000000007                   14.25      39.899999999999999
   353   1      5.7000000000000002      17.100000000000001                       0
   354   1      5.7000000000000002      19.950000000000003      2.8500000000000001
   355   1      8.5500000000000007      17.100000000000001      2.8500000000000001
   356   1      8.5500000000000007      19.950000000000003                       0
   357   1      5.7000000000000002      17.100000000000001      5.7000000000000002
   358   1      5.7000000000000002      19.950000000000003      8.5500000000000007
   359   1      8.5500000000000007      17.100000000000001      8.5500000000000007