LAMMPS (2 Apr 2025)
OMP_NUM_THREADS environment is not set. Defaulting to 1 thread. (src/comm.cpp:99)
  using 1 OpenMP thread(s) per MPI task
# Define Variables
variable temp equal 300
variable rdf_bins equal 50
variable sim_run equal 1

# Define the Units
units real
atom_style atomic

# Create a Simulation Box
read_data Ar.data
Reading data file ...
  orthogonal box = (0 0 0) to (42.08 42.08 42.08)
  1 by 1 by 1 MPI processor grid
  reading atoms ...
  2048 atoms
  read_data CPU = 0.046 seconds

# Assign the Group to Argon and Assign it's mass
group Ar type 1
2048 atoms in group Ar
mass 1 39.948

# Define the Potential of the Simulation
pair_style lj/cut 10.0
pair_coeff 1 1 1.0 1.0

# Set the initial velocity
velocity all create ${temp} 54343
velocity all create 300 54343

# Define the Thermodynamics Output
thermo 100
thermo_style custom step temp press vol etotal

# Compute the RDF
compute RDF all rdf ${rdf_bins}
compute RDF all rdf 50

# Run the Simulation
fix integrate1 all nvt temp ${temp} ${temp} 5.0
fix integrate1 all nvt temp 300 ${temp} 5.0
fix integrate1 all nvt temp 300 300 5.0
fix 1 all ave/time 100 10 1000 c_RDF[*] file RDF_Pre_Sim${sim_run}.data mode vector
fix 1 all ave/time 100 10 1000 c_RDF[*] file RDF_Pre_Sim1.data mode vector
timestep 0.005

# Run the Simulation
run 20000
Generated 0 of 0 mixed pair_coeff terms from geometric mixing rule
Neighbor list info ...
  update: every = 1 steps, delay = 0 steps, check = yes
  max neighbors/atom: 2000, page size: 100000
  master list distance cutoff = 12
  ghost atom cutoff = 12
  binsize = 6, bins = 8 8 8
  2 neighbor lists, perpetual/occasional/extra = 1 1 0
  (1) pair lj/cut, perpetual
      attributes: half, newton on
      pair build: half/bin/atomonly/newton
      stencil: half/bin/3d
      bin: standard
  (2) compute rdf, occasional, copy from (1)
      attributes: half, newton on
      pair build: copy
      stencil: none
      bin: none
Per MPI rank memory allocation (min/avg/max) = 4.093 | 4.093 | 4.093 Mbytes
   Step          Temp          Press          Volume         TotEng    
         0   300            1082.6031      74512.167      1808.56      
       100   300.00001      1082.603       74512.167      1808.56      
       200   300.00004      1082.6028      74512.167      1808.56      
       300   300.0001       1082.6024      74512.167      1808.56      
       400   300.00017      1082.6018      74512.167      1808.56      
       500   300.00026      1082.601       74512.167      1808.56      
       600   300.00037      1082.6001      74512.167      1808.5599    
       700   300.00049      1082.5989      74512.167      1808.5597    
       800   300.00062      1082.5976      74512.167      1808.5595    
       900   300.00076      1082.596       74512.167      1808.5592    
      1000   300.0009       1082.5942      74512.167      1808.5588    
      1100   300.00103      1082.5921      74512.167      1808.5582    
      1200   300.00114      1082.5896      74512.167      1808.5573    
      1300   300.00123      1082.5869      74512.167      1808.5562    
      1400   300.00127      1082.5837      74512.167      1808.5547    
      1500   300.00126      1082.5801      74512.167      1808.5526    
      1600   300.00118      1082.576       74512.167      1808.55      
      1700   300.001        1082.5712      74512.167      1808.5467    
      1800   300.00071      1082.5658      74512.167      1808.5426    
      1900   300.00029      1082.5597      74512.167      1808.5376    
      2000   299.99974      1082.5529      74512.167      1808.5316    
      2100   299.99906      1082.5452      74512.167      1808.5247    
      2200   299.99824      1082.5369      74512.167      1808.5168    
      2300   299.99731      1082.5278      74512.167      1808.5081    
      2400   299.99628      1082.5181      74512.167      1808.4987    
      2500   299.99517      1082.5079      74512.167      1808.4886    
      2600   299.994        1082.4973      74512.167      1808.4781    
      2700   299.99282      1082.4863      74512.167      1808.4673    
      2800   299.99165      1082.4752      74512.167      1808.4565    
      2900   299.99053      1082.4639      74512.167      1808.4458    
      3000   299.98947      1082.4527      74512.167      1808.4354    
      3100   299.98853      1082.4417      74512.167      1808.4256    
      3200   299.98772      1082.4311      74512.167      1808.4165    
      3300   299.98708      1082.4208      74512.167      1808.4083    
      3400   299.98662      1082.4111      74512.167      1808.4011    
      3500   299.98638      1082.402       74512.167      1808.3952    
      3600   299.98636      1082.3934      74512.167      1808.3905    
      3700   299.9866       1082.3856      74512.167      1808.3872    
      3800   299.98709      1082.3786      74512.167      1808.3854    
      3900   299.98784      1082.3724      74512.167      1808.3851    
      4000   299.98886      1082.367       74512.167      1808.3863    
      4100   299.99015      1082.3624      74512.167      1808.389     
      4200   299.9917       1082.3587      74512.167      1808.3933    
      4300   299.99349      1082.3556      74512.167      1808.3989    
      4400   299.99551      1082.3531      74512.167      1808.4057    
      4500   299.99773      1082.3513      74512.167      1808.4137    
      4600   300.00013      1082.35        74512.167      1808.4228    
      4700   300.00267      1082.349       74512.167      1808.4326    
      4800   300.00532      1082.348       74512.167      1808.4428    
      4900   300.00803      1082.3469      74512.167      1808.4532    
      5000   300.01075      1082.3458      74512.167      1808.4637    
      5100   300.01342      1082.3442      74512.167      1808.4737    
      5200   300.01599      1082.3422      74512.167      1808.483     
      5300   300.01839      1082.3393      74512.167      1808.4912    
      5400   300.02056      1082.3352      74512.167      1808.4978    
      5500   300.02242      1082.3297      74512.167      1808.5023    
      5600   300.0239       1082.3224      74512.167      1808.5044    
      5700   300.02493      1082.3134      74512.167      1808.5036    
      5800   300.02543      1082.3021      74512.167      1808.4995    
      5900   300.02533      1082.2882      74512.167      1808.4916    
      6000   300.02456      1082.2716      74512.167      1808.4794    
      6100   300.02306      1082.252       74512.167      1808.4627    
      6200   300.02077      1082.2294      74512.167      1808.441     
      6300   300.01765      1082.2031      74512.167      1808.4141    
      6400   300.01367      1082.1735      74512.167      1808.3818    
      6500   300.00881      1082.1403      74512.167      1808.344     
      6600   300.00308      1082.1036      74512.167      1808.3006    
      6700   299.99649      1082.0635      74512.167      1808.252     
      6800   299.98909      1082.0199      74512.167      1808.1983    
      6900   299.98094      1081.9735      74512.167      1808.1399    
      7000   299.97215      1081.9241      74512.167      1808.0773    
      7100   299.96283      1081.8726      74512.167      1808.0114    
      7200   299.95313      1081.8192      74512.167      1807.9429    
      7300   299.9432       1081.7648      74512.167      1807.8729    
      7400   299.93325      1081.7101      74512.167      1807.8027    
      7500   299.92348      1081.6557      74512.167      1807.7334    
      7600   299.91412      1081.6027      74512.167      1807.6665    
      7700   299.90543      1081.5517      74512.167      1807.6034    
      7800   299.89765      1081.5038      74512.167      1807.5457    
      7900   299.89105      1081.4602      74512.167      1807.4951    
      8000   299.88588      1081.4217      74512.167      1807.4532    
      8100   299.88241      1081.3893      74512.167      1807.4214    
      8200   299.88088      1081.3638      74512.167      1807.4014    
      8300   299.88153      1081.3461      74512.167      1807.3943    
      8400   299.88455      1081.337       74512.167      1807.4017    
      8500   299.89014      1081.3372      74512.167      1807.4245    
      8600   299.89843      1081.3474      74512.167      1807.4637    
      8700   299.90952      1081.3675      74512.167      1807.5198    
      8800   299.92347      1081.3982      74512.167      1807.5931    
      8900   299.94027      1081.4393      74512.167      1807.6838    
      9000   299.95988      1081.4905      74512.167      1807.7914    
      9100   299.98215      1081.5515      74512.167      1807.9151    
      9200   300.00691      1081.6214      74512.167      1808.0537    
      9300   300.03389      1081.6995      74512.167      1808.2059    
      9400   300.06275      1081.7843      74512.167      1808.3694    
      9500   300.0931       1081.8744      74512.167      1808.5418    
      9600   300.12445      1081.9677      74512.167      1808.72      
      9700   300.15624      1082.0625      74512.167      1808.9008    
      9800   300.18787      1082.1565      74512.167      1809.0805    
      9900   300.21865      1082.2471      74512.167      1809.2549    
     10000   300.24786      1082.3313      74512.167      1809.4194    
     10100   300.2747       1082.4064      74512.167      1809.5694    
     10200   300.29838      1082.4693      74512.167      1809.6998    
     10300   300.31805      1082.5168      74512.167      1809.8056    
     10400   300.33289      1082.546       74512.167      1809.8818    
     10500   300.34207      1082.5535      74512.167      1809.9233    
     10600   300.34479      1082.5367      74512.167      1809.9252    
     10700   300.34031      1082.4926      74512.167      1809.883     
     10800   300.32797      1082.4188      74512.167      1809.7926    
     10900   300.30717      1082.313       74512.167      1809.6505    
     11000   300.27748      1082.1736      74512.167      1809.4539    
     11100   300.23856      1081.9992      74512.167      1809.2009    
     11200   300.19025      1081.7896      74512.167      1808.8904    
     11300   300.1326       1081.5446      74512.167      1808.5227    
     11400   300.06581      1081.265       74512.167      1808.0992    
     11500   299.99034      1080.9528      74512.167      1807.6225    
     11600   299.90688      1080.6104      74512.167      1807.0969    
     11700   299.81633      1080.241       74512.167      1806.5279    
     11800   299.71988      1079.8492      74512.167      1805.9226    
     11900   299.61894      1079.4404      74512.167      1805.2898    
     12000   299.51517      1079.0204      74512.167      1804.6395    
     12100   299.41046      1078.5969      74512.167      1803.9834    
     12200   299.30692      1078.1774      74512.167      1803.3342    
     12300   299.20683      1077.7703      74512.167      1802.7059    
     12400   299.11266      1077.3852      74512.167      1802.1135    
     12500   299.02697      1077.0314      74512.167      1801.5727    
     12600   298.95243      1076.7191      74512.167      1801.0997    
     12700   298.89176      1076.4584      74512.167      1800.7112    
     12800   298.84764      1076.2594      74512.167      1800.4236    
     12900   298.82271      1076.1318      74512.167      1800.2528    
     13000   298.8195       1076.085       74512.167      1800.2143    
     13100   298.84034      1076.1282      74512.167      1800.3225    
     13200   298.88733      1076.2688      74512.167      1800.59      
     13300   298.96226      1076.5136      74512.167      1801.0278    
     13400   299.06651      1076.868       74512.167      1801.6444    
     13500   299.201        1077.3352      74512.167      1802.4453    
     13600   299.36612      1077.9166      74512.167      1803.4328    
     13700   299.5616       1078.6114      74512.167      1804.6055    
     13800   299.78648      1079.4158      74512.167      1805.9573    
     13900   300.03901      1080.3235      74512.167      1807.4777    
     14000   300.31661      1081.3246      74512.167      1809.1507    
     14100   300.61582      1082.4062      74512.167      1810.9555    
     14200   300.93232      1083.5521      74512.167      1812.8656    
     14300   301.26092      1084.7431      74512.167      1814.8493    
     14400   301.59561      1085.9563      74512.167      1816.8699    
     14500   301.92968      1087.167       74512.167      1818.8866    
     14600   302.2558       1088.3474      74512.167      1820.8545    
     14700   302.56613      1089.4684      74512.167      1822.726     
     14800   302.85251      1090.4994      74512.167      1824.451     
     14900   303.10655      1091.4089      74512.167      1825.9785    
     15000   303.31976      1092.1651      74512.167      1827.2566    
     15100   303.4837       1092.7366      74512.167      1828.234     
     15200   303.59006      1093.0924      74512.167      1828.8599    
     15300   303.63081      1093.202       74512.167      1829.0851    
     15400   303.59828      1093.0369      74512.167      1828.8631    
     15500   303.48541      1092.5707      74512.167      1828.1506    
     15600   303.28597      1091.78        74512.167      1826.9097    
     15700   302.99492      1090.6461      74512.167      1825.1096    
     15800   302.60891      1089.1564      74512.167      1822.7299    
     15900   302.12685      1087.3068      74512.167      1819.7639    
     16000   301.55062      1085.1043      74512.167      1816.2232    
     16100   300.88573      1082.5696      74512.167      1812.1413    
     16200   300.14183      1079.7388      74512.167      1807.577     
     16300   299.33289      1076.6642      74512.167      1802.6158    
     16400   298.47704      1073.4137      74512.167      1797.3682    
     16500   297.59567      1070.0672      74512.167      1791.9646    
     16600   296.7123       1066.713       74512.167      1786.5487    
     16700   295.85101      1063.441       74512.167      1781.2672    
     16800   295.035        1060.3383      74512.167      1776.262     
     16900   294.28544      1057.484       74512.167      1771.662     
     17000   293.62078      1054.9472      74512.167      1767.5799    
     17100   293.05667      1052.7865      74512.167      1764.1111    
     17200   292.60628      1051.0513      74512.167      1761.3361    
     17300   292.28099      1049.7838      74512.167      1759.3241    
     17400   292.09123      1049.0233      74512.167      1758.139     
     17500   292.04744      1048.8088      74512.167      1757.8442    
     17600   292.16081      1049.1822      74512.167      1758.5082    
     17700   292.44387      1050.1904      74512.167      1760.2074    
     17800   292.91042      1051.8851      74512.167      1763.0259    
     17900   293.57451      1054.3188      74512.167      1767.0496    
     18000   294.44778      1057.535       74512.167      1772.3493    
     18100   295.53462      1061.5501      74512.167      1778.9519    
     18200   296.82545      1066.3283      74512.167      1786.7989    
     18300   298.28965      1071.755       74512.167      1795.7034    
     18400   299.87171      1077.6223      74512.167      1805.3268    
     18500   301.49467      1083.6421      74512.167      1815.1995    
     18600   303.07182      1089.4899      74512.167      1824.7923    
     18700   304.52274      1094.8645      74512.167      1833.6145    
     18800   305.78652      1099.5381      74512.167      1841.2946    
     18900   306.82717      1103.3759      74512.167      1847.6129    
     19000   307.63143      1106.3283      74512.167      1852.4886    
     19100   308.20247      1108.407       74512.167      1855.9408    
     19200   308.55313      1109.6603      74512.167      1858.0481    
     19300   308.70077      1110.1531      74512.167      1858.9164    
     19400   308.6643       1109.9563      74512.167      1858.661     
     19500   308.46274      1109.141       74512.167      1857.398     
     19600   308.11507      1107.7783      74512.167      1855.2433    
     19700   307.64048      1105.9403      74512.167      1852.314     
     19800   307.05887      1103.7011      74512.167      1848.7314    
     19900   306.39118      1101.1393      74512.167      1844.6233    
     20000   305.65937      1098.337       74512.167      1840.1237    
Loop time of 122.108 on 1 procs for 20000 steps with 2048 atoms

Performance: 0.071 ns/day, 339.190 hours/ns, 163.789 timesteps/s, 335.439 katom-step/s
100.0% CPU use with 1 MPI tasks x 1 OpenMP threads

MPI task timing breakdown:
Section |  min time  |  avg time  |  max time  |%varavg| %total
---------------------------------------------------------------
Pair    | 116.39     | 116.39     | 116.39     |   0.0 | 95.32
Neigh   | 0          | 0          | 0          |   0.0 |  0.00
Comm    | 1.5597     | 1.5597     | 1.5597     |   0.0 |  1.28
Output  | 0.0055617  | 0.0055617  | 0.0055617  |   0.0 |  0.00
Modify  | 3.4699     | 3.4699     | 3.4699     |   0.0 |  2.84
Other   |            | 0.6794     |            |       |  0.56

Nlocal:           2048 ave        2048 max        2048 min
Histogram: 1 0 0 0 0 0 0 0 0 0
Nghost:           5765 ave        5765 max        5765 min
Histogram: 1 0 0 0 0 0 0 0 0 0
Neighs:         204800 ave      204800 max      204800 min
Histogram: 1 0 0 0 0 0 0 0 0 0

Total # of neighbors = 204800
Ave neighs/atom = 100
Neighbor list builds = 0
Dangerous builds = 0
unfix integrate1

# Output the RDF Data to the Dump Folder
fix integrate2 all nvt temp ${temp} ${temp} 5.0
fix integrate2 all nvt temp 300 ${temp} 5.0
fix integrate2 all nvt temp 300 300 5.0
fix 1 all ave/time 100 10 1000 c_RDF[*] file RDF_Sim${sim_run}.data mode vector
fix 1 all ave/time 100 10 1000 c_RDF[*] file RDF_Sim1.data mode vector

# Dump the files for the positions of the Atoms every 100 Frames
dump            myDump1 all custom 100 Dumpfiles/_*.dump id type element x y z vx vy vz fx fy fz
dump_modify 	myDump1 element Ar

# Run the Simulation
run 100000
Generated 0 of 0 mixed pair_coeff terms from geometric mixing rule
Per MPI rank memory allocation (min/avg/max) = 5.237 | 5.237 | 5.237 Mbytes
   Step          Temp          Press          Volume         TotEng    
     20000   305.65937      1098.337       74512.167      1840.1237    
     20100   305.60738      1098.0792      74512.167      1839.7721    
     20200   305.44009      1097.3892      74512.167      1838.7166    
     20300   305.15774      1096.268       74512.167      1836.9587    
     20400   304.76096      1094.7179      74512.167      1834.5024    
     20500   304.25112      1092.7443      74512.167      1831.356     
     20600   303.6308       1090.3566      74512.167      1827.5352    
     20700   302.90438      1087.5715      74512.167      1823.0669    
     20800   302.07889      1084.415       74512.167      1817.9938    
     20900   301.16478      1080.9263      74512.167      1812.3797    
     21000   300.17665      1077.1601      74512.167      1806.3137    
     21100   299.13362      1073.188       74512.167      1799.9126    
     21200   298.05906      1069.0976      74512.167      1793.3189    
     21300   296.97962      1064.9884      74512.167      1786.6951    
     21400   295.92354      1060.9663      74512.167      1780.2137    
     21500   294.91862      1057.1354      74512.167      1774.0442    
     21600   293.99025      1053.5907      74512.167      1768.3417    
     21700   293.16006      1050.4129      74512.167      1763.2379    
     21800   292.44528      1047.6669      74512.167      1758.8382    
     21900   291.85905      1045.4016      74512.167      1755.2225    
     22000   291.41138      1043.6546      74512.167      1752.4522    
     22100   291.11085      1042.4578      74512.167      1750.5793    
     22200   290.96673      1041.8461      74512.167      1749.6605    
     22300   290.99189      1041.8675      74512.167      1749.7744    
     22400   291.20666      1042.5981      74512.167      1751.0449    
     22500   291.64382      1044.1605      74512.167      1753.6719    
     22600   292.35378      1046.7436      74512.167      1757.9632    
     22700   293.40615      1050.6077      74512.167      1764.3435    
     22800   294.87764      1056.04        74512.167      1773.2807    
     22900   296.81285      1063.2075      74512.167      1785.047     
     23000   299.15908      1071.9126      74512.167      1799.3208    
     23100   301.72108      1081.4245      74512.167      1814.9105    
     23200   304.20718      1090.6513      74512.167      1830.0367    
     23300   306.35844      1098.6239      74512.167      1843.1193    
     23400   308.04611      1104.8602      74512.167      1853.3727    
     23500   309.267        1109.3483      74512.167      1860.7775    
     23600   310.08194      1112.3162      74512.167      1865.7049    
     23700   310.56271      1114.0325      74512.167      1868.593     
     23800   310.76784      1114.7164      74512.167      1869.7989    
     23900   310.73842      1114.5215      74512.167      1869.5731    
     24000   310.50189      1113.5507      74512.167      1868.0833    
     24100   310.07745      1111.8759      74512.167      1865.4466    
     24200   309.48074      1109.5557      74512.167      1861.7585    
     24300   308.7275       1106.6491      74512.167      1857.115     
     24400   307.83619      1103.2249      74512.167      1851.6286    
     24500   306.8296       1099.3688      74512.167      1845.4386    
     24600   305.73525      1095.1835      74512.167      1838.7128    
     24700   304.58458      1090.7871      74512.167      1831.6431    
     24800   303.41099      1086.3043      74512.167      1824.4333    
     24900   302.24718      1081.8575      74512.167      1817.2828    
     25000   301.12257      1077.557       74512.167      1810.3713    
     25100   300.06143      1073.4936      74512.167      1803.8467    
     25200   299.08199      1069.7355      74512.167      1797.8204    
     25300   298.19667      1066.3293      74512.167      1792.3682    
     25400   297.41297      1063.3029      74512.167      1787.5356    
     25500   296.73464      1060.6703      74512.167      1783.3457    
     25600   296.16296      1058.4364      74512.167      1779.8063    
     25700   295.69769      1056.6002      74512.167      1776.9157    
     25800   295.33781      1055.1578      74512.167      1774.6679    
     25900   295.08205      1054.1046      74512.167      1773.055     
     26000   294.92915      1053.4357      74512.167      1772.0693    
     26100   294.87799      1053.1469      74512.167      1771.7041    
     26200   294.92767      1053.2349      74512.167      1771.9538    
     26300   295.07744      1053.6969      74512.167      1772.8137    
     26400   295.32659      1054.53        74512.167      1774.2797    
     26500   295.67432      1055.7314      74512.167      1776.3467    
     26600   296.11946      1057.2967      74512.167      1779.0077    
     26700   296.66015      1059.2187      74512.167      1782.2512    
     26800   297.29345      1061.4867      74512.167      1786.0593    
     26900   298.01476      1064.0832      74512.167      1790.404     
     27000   298.81733      1066.9829      74512.167      1795.244     
     27100   299.69165      1070.1503      74512.167      1800.5212    
     27200   300.62507      1073.538       74512.167      1806.1586    
     27300   301.60166      1077.0862      74512.167      1812.0589    
     27400   302.60246      1080.7241      74512.167      1818.1062    
     27500   303.60616      1084.3719      74512.167      1824.1708    
     27600   304.59019      1087.945       74512.167      1830.1147    
     27700   305.53196      1091.3588      74512.167      1835.8003    
     27800   306.4101       1094.5335      74512.167      1841.097     
     27900   307.20528      1097.3966      74512.167      1845.8869    
     28000   307.90052      1099.8847      74512.167      1850.0666    
     28100   308.48091      1101.9418      74512.167      1853.5449    
     28200   308.93257      1103.516       74512.167      1856.2371    
     28300   309.24081      1104.5523      74512.167      1858.0538    
     28400   309.3875       1104.9831      74512.167      1858.8841    
     28500   309.34737      1104.7135      74512.167      1858.5741    
     28600   309.08384      1103.6069      74512.167      1856.9005    
     28700   308.54591      1101.4721      74512.167      1853.552     
     28800   307.67046      1098.0732      74512.167      1848.1437    
     28900   306.39725      1093.1844      74512.167      1840.3078    
     29000   304.70182      1086.7147      74512.167      1829.8954    
     29100   302.63846      1078.8671      74512.167      1817.2378    
     29200   300.36211      1070.2216      74512.167      1803.2802    
     29300   298.09384      1061.6059      74512.167      1789.3716    
     29400   296.03919      1053.7894      74512.167      1776.7662    
     29500   294.32123      1047.2327      74512.167      1766.2149    
     29600   292.97233      1042.0569      74512.167      1757.9151    
     29700   291.9675       1038.1683      74512.167      1751.7144    
     29800   291.26139      1035.3971      74512.167      1747.3359    
     29900   290.8102       1033.5793      74512.167      1744.5125    
     30000   290.57974      1032.5869      74512.167      1743.0353    
     30100   290.54587      1032.3294      74512.167      1742.7572    
     30200   290.69223      1032.7454      74512.167      1743.5781    
     30300   291.00733      1033.7923      74512.167      1745.4282    
     30400   291.48198      1035.4351      74512.167      1748.2511    
     30500   292.10684      1037.6392      74512.167      1751.99      
     30600   292.87045      1040.3613      74512.167      1756.5747    
     30700   293.75746      1043.5442      74512.167      1761.9118    
     30800   294.7476       1047.1119      74512.167      1767.8774    
     30900   295.81542      1050.9689      74512.167      1774.3162    
     31000   296.93116      1055.004       74512.167      1781.0468    
     31100   298.06267      1059.0968      74512.167      1787.8727    
     31200   299.17795      1063.1273      74512.167      1794.5989    
     31300   300.24774      1066.9863      74512.167      1801.0467    
     31400   301.2475       1070.5817      74512.167      1807.0665    
     31500   302.15837      1073.8429      74512.167      1812.543     
     31600   302.96713      1076.7204      74512.167      1817.3958    
     31700   303.6655       1079.1834      74512.167      1821.5742    
     31800   304.24902      1081.2152      74512.167      1825.0511    
     31900   304.71596      1082.8091      74512.167      1827.816     
     32000   305.06638      1083.9656      74512.167      1829.869     
     32100   305.30137      1084.6886      74512.167      1831.2171    
     32200   305.42265      1084.9846      74512.167      1831.8705    
     32300   305.43226      1084.8613      74512.167      1831.8419    
     32400   305.33249      1084.3273      74512.167      1831.1451    
     32500   305.12586      1083.3919      74512.167      1829.7956    
     32600   304.81526      1082.0662      74512.167      1827.811     
     32700   304.40412      1080.3628      74512.167      1825.2123    
     32800   303.89665      1078.2978      74512.167      1822.0252    
     32900   303.29816      1075.8908      74512.167      1818.282     
     33000   302.6154       1073.1672      74512.167      1814.0239    
     33100   301.85689      1070.1587      74512.167      1809.303     
     33200   301.03322      1066.9052      74512.167      1804.1838    
     33300   300.15722      1063.4546      74512.167      1798.7446    
     33400   299.24395      1059.8634      74512.167      1793.0774    
     33500   298.31029      1056.1948      74512.167      1787.2852    
     33600   297.37442      1052.5167      74512.167      1781.4789    
     33700   296.45494      1048.8987      74512.167      1775.7718    
     33800   295.56986      1045.4083      74512.167      1770.274     
     33900   294.73574      1042.1077      74512.167      1765.0866    
     34000   293.96694      1039.0502      74512.167      1760.297     
     34100   293.2753       1036.2803      74512.167      1755.9774    
     34200   292.67021      1033.8332      74512.167      1752.1854    
     34300   292.15924      1031.7371      74512.167      1748.9668    
     34400   291.74927      1030.0176      74512.167      1746.3637    
     34500   291.4485       1028.7054      74512.167      1744.4262    
     34600   291.26956      1027.8479      74512.167      1743.2312    
     34700   291.23398      1027.5256      74512.167      1742.9101    
     34800   291.37778      1027.873       74512.167      1743.6826    
     34900   291.75542      1029.0942      74512.167      1745.881     
     35000   292.43656      1031.4496      74512.167      1749.9303    
     35100   293.48863      1035.1917      74512.167      1756.2419    
     35200   294.94524      1040.4461      74512.167      1765.0207    
     35300   296.77188      1047.0834      74512.167      1776.056     
     35400   298.85135      1054.6647      74512.167      1788.6327    
     35500   301.00815      1062.533       74512.167      1801.6799    
     35600   303.0652       1070.0255      74512.167      1814.1171    
     35700   304.89566      1076.6671      74512.167      1825.1702    
     35800   306.43902      1082.2317      74512.167      1834.4702    
     35900   307.68517      1086.6814      74512.167      1841.9554    
     36000   308.64955      1090.0741      74512.167      1847.7201    
     36100   309.35469      1092.4941      74512.167      1851.9016    
     36200   309.82091      1094.0177      74512.167      1854.6242    
     36300   310.06351      1094.7021      74512.167      1855.9811    
     36400   310.09298      1094.5866      74512.167      1856.0364    
     36500   309.9166       1093.6987      74512.167      1854.8346    
     36600   309.5405       1092.0612      74512.167      1852.413     
     36700   308.97197      1089.7014      74512.167      1848.8162    
     36800   308.22186      1086.6601      74512.167      1844.1104    
     36900   307.3069       1082.9999      74512.167      1838.3978    
     37000   306.25145      1078.8122      74512.167      1831.8269    
     37100   305.08806      1074.2187      74512.167      1824.5965    
     37200   303.85628      1069.3674      74512.167      1816.9477    
     37300   302.59949      1064.4209      74512.167      1809.1454    
     37400   301.36059      1059.5397      74512.167      1801.4513    
     37500   300.17763      1054.8661      74512.167      1794.0975    
     37600   299.08068      1050.513       74512.167      1787.2677    
     37700   298.09072      1046.5586      74512.167      1781.0897    
     37800   297.2202       1043.0493      74512.167      1775.6393    
     37900   296.47478      1040.0064      74512.167      1770.9511    
     38000   295.85543      1037.4336      74512.167      1767.0311    
     38100   295.36031      1035.3236      74512.167      1763.8679    
     38200   294.98617      1033.6645      74512.167      1761.4417    
     38300   294.72928      1032.4421      74512.167      1759.7297    
     38400   294.58601      1031.6427      74512.167      1758.7096    
     38500   294.55302      1031.2538      74512.167      1758.3611    
     38600   294.62731      1031.2639      74512.167      1758.6657    
     38700   294.80614      1031.663       74512.167      1759.6068    
     38800   295.08683      1032.4407      74512.167      1761.168     
     38900   295.46656      1033.5865      74512.167      1763.3318    
     39000   295.94198      1035.0879      74512.167      1766.0781    
     39100   296.50892      1036.929       74512.167      1769.3811    
     39200   297.16196      1039.0896      74512.167      1773.2078    
     39300   297.89399      1041.5429      74512.167      1777.5148    
     39400   298.69584      1044.2545      74512.167      1782.2461    
     39500   299.55598      1047.1812      74512.167      1787.3313    
     39600   300.46045      1050.2707      74512.167      1792.6851    
     39700   301.393        1053.462       74512.167      1798.2083    
     39800   302.3356       1056.6876      74512.167      1803.791     
     39900   303.26915      1059.8761      74512.167      1809.3165    
     40000   304.17441      1062.9552      74512.167      1814.6674    
     40100   305.03293      1065.856       74512.167      1819.7311    
     40200   305.82778      1068.5151      74512.167      1824.4044    
     40300   306.54398      1070.8763      74512.167      1828.5958    
     40400   307.1685       1072.891       74512.167      1832.2257    
     40500   307.6897       1074.5153      74512.167      1835.2232    
     40600   308.09616      1075.7069      74512.167      1837.5186    
     40700   308.37481      1076.4166      74512.167      1839.0321    
     40800   308.50795      1076.5782      74512.167      1839.6558    
     40900   308.46925      1076.0933      74512.167      1839.229     
     41000   308.21907      1074.8134      74512.167      1837.5098    
     41100   307.70147      1072.5294      74512.167      1834.1571    
     41200   306.84843      1068.9868      74512.167      1828.7558    
     41300   305.59877      1063.9568      74512.167      1820.9328    
     41400   303.93433      1057.3714      74512.167      1810.5773    
     41500   301.92004      1049.474       74512.167      1798.0855    
     41600   299.7156       1040.8627      74512.167      1784.4323    
     41700   297.53294      1032.3308      74512.167      1770.9105    
     41800   295.55931      1024.5791      74512.167      1758.6628    
     41900   293.90319      1018.0135      74512.167      1748.351     
     42000   292.59307      1012.7404      74512.167      1740.1487    
     42100   291.60858      1008.6835      74512.167      1733.9315    
     42200   290.912        1005.7013      74512.167      1729.4692    
     42300   290.46664      1003.6562      74512.167      1726.5377    
     42400   290.24361      1002.4399      74512.167      1724.9607    
     42500   290.22232      1001.9751      74512.167      1724.6125    
     42600   290.38872      1002.2092      74512.167      1725.4072    
     42700   290.7328       1003.1045      74512.167      1727.2835    
     42800   291.24616      1004.6294      74512.167      1730.1903    
     42900   291.9197       1006.7497      74512.167      1734.0719    
     43000   292.74144      1009.4202      74512.167      1738.8549    
     43100   293.69466      1012.5784      74512.167      1744.4373    
     43200   294.75674      1016.1392      74512.167      1750.681     
     43300   295.89896      1019.9952      74512.167      1757.4108    
     43400   297.08779      1024.0207      74512.167      1764.4218    
     43500   298.28727      1028.081       74512.167      1771.4946    
     43600   299.46223      1032.0443      74512.167      1778.4145    
     43700   300.58129      1035.7933      74512.167      1784.9902    
     43800   301.61898      1039.2324      74512.167      1791.066     
     43900   302.55653      1042.2916      74512.167      1796.5276    
     44000   303.38155      1044.9244      74512.167      1801.2993    
     44100   304.08688      1047.104       74512.167      1805.3373    
     44200   304.66924      1048.8182      74512.167      1808.6217    
     44300   305.12791      1050.0644      74512.167      1811.1481    
     44400   305.4637       1050.8455      74512.167      1812.9215    
     44500   305.67827      1051.168       74512.167      1813.9519    
     44600   305.77369      1051.0394      74512.167      1814.252     
     44700   305.75223      1050.4687      74512.167      1813.8357    
     44800   305.6164       1049.4649      74512.167      1812.7183    
     44900   305.36907      1048.039       74512.167      1810.9174    
     45000   305.01367      1046.2039      74512.167      1808.4537    
     45100   304.55451      1043.9757      74512.167      1805.3537    
     45200   303.99724      1041.3757      74512.167      1801.6519    
     45300   303.34926      1038.4316      74512.167      1797.3933    
     45400   302.62016      1035.1793      74512.167      1792.6365    
     45500   301.82214      1031.6646      74512.167      1787.456     
     45600   300.97018      1027.9436      74512.167      1781.9431    
     45700   300.0819       1024.0824      74512.167      1776.2055    
     45800   299.17718      1020.1554      74512.167      1770.3643    
     45900   298.27721      1016.2418      74512.167      1764.5488    
     46000   297.40345      1012.422       74512.167      1758.8899    
     46100   296.57633      1008.7723      74512.167      1753.5121    
     46200   295.81423      1005.3617      74512.167      1748.5277    
     46300   295.13263      1002.2478      74512.167      1744.0309    
     46400   294.54382      999.47679      74512.167      1740.0966    
     46500   294.05693      997.0827       74512.167      1736.7805    
     46600   293.6785       995.08978      74512.167      1734.1224    
     46700   293.41328      993.51595      74512.167      1732.1512    
     46800   293.26543      992.37659      74512.167      1730.8921    
     46900   293.24022      991.69122      74512.167      1730.3771    
     47000   293.34641      991.49257      74512.167      1730.6595    
     47100   293.59999      991.84032      74512.167      1731.8368    
     47200   294.02983      992.8425       74512.167      1734.085     
     47300   294.68527      994.68352      74512.167      1737.7049    
     47400   295.64259      997.64866      74512.167      1743.1617    
     47500   296.99921      1002.1024      74512.167      1751.0496    
     47600   298.83674      1008.3497      74512.167      1761.8662    
     47700   301.14697      1016.3593      74512.167      1775.5608    
     47800   303.76615      1025.5179      74512.167      1791.1341    
     47900   306.40224      1034.7322      74512.167      1806.8039    
     48000   308.7656       1042.9181      74512.167      1820.8027    
     48100   310.68651      1049.4407      74512.167      1832.0952    
     48200   312.12716      1054.1591      74512.167      1840.4509    
     48300   313.12476      1057.2133      74512.167      1846.0971    
     48400   313.73673      1058.8187      74512.167      1849.3843    
     48500   314.01344      1059.1644      74512.167      1850.6201    
     48600   313.99171      1058.3888      74512.167      1850.0292    
     48700   313.69735      1056.5892      74512.167      1847.7695    
     48800   313.15063      1053.842       74512.167      1843.9647    
     48900   312.37186      1050.2236      74512.167      1838.739     
     49000   311.38654      1045.8302      74512.167      1832.248     
     49100   310.22896      1040.7905      74512.167      1824.701     
     49200   308.94343      1035.271       74512.167      1816.3687    
     49300   307.5822       1029.4677      74512.167      1807.5698    
     49400   306.20011      1023.5864      74512.167      1798.639     
     49500   304.84769      1017.8169      74512.167      1789.8848    
     49600   303.56524      1012.3102      74512.167      1781.553     
     49700   302.37992      1007.1684      74512.167      1773.8092    
     49800   301.30617      1002.4462      74512.167      1766.7416    
     49900   300.34852      998.16072      74512.167      1760.3777    
     50000   299.50507      994.30555      74512.167      1754.7059    
     50100   298.77063      990.86179      74512.167      1749.6944    
     50200   298.1389       987.80629      74512.167      1745.3047    
     50300   297.60378      985.11732      74512.167      1741.4999    
     50400   297.15998      982.77546      74512.167      1738.2473    
     50500   296.80321      980.76548      74512.167      1735.5209    
     50600   296.53009      979.0757       74512.167      1733.3       
     50700   296.33804      977.69755      74512.167      1731.5691    
     50800   296.22508      976.62455      74512.167      1730.316     
     50900   296.18966      975.85214      74512.167      1729.5314    
     51000   296.23047      975.37663      74512.167      1729.2074    
     51100   296.34634      975.19507      74512.167      1729.3369    
     51200   296.53607      975.30441      74512.167      1729.9128    
     51300   296.79835      975.70145      74512.167      1730.9272    
     51400   297.13161      976.38202      74512.167      1732.3707    
     51500   297.53389      977.34081      74512.167      1734.2316    
     51600   298.00273      978.57068      74512.167      1736.4952    
     51700   298.53497      980.06186      74512.167      1739.1424    
     51800   299.1266       981.80194      74512.167      1742.1491    
     51900   299.77259      983.77467      74512.167      1745.485     
     52000   300.46667      985.95959      74512.167      1749.1124    
     52100   301.20121      988.33102      74512.167      1752.985     
     52200   301.96712      990.85828      74512.167      1757.0481    
     52300   302.75379      993.50515      74512.167      1761.2373    
     52400   303.54912      996.23026      74512.167      1765.4798    
     52500   304.3397       998.98734      74512.167      1769.6942    
     52600   305.11092      1001.726       74512.167      1773.7924    
     52700   305.84714      1004.3922      74512.167      1777.6798    
     52800   306.53182      1006.9291      74512.167      1781.2566    
     52900   307.14747      1009.276       74512.167      1784.417     
     53000   307.67541      1011.3683      74512.167      1787.0482    
     53100   308.09533      1013.1355      74512.167      1789.0276    
     53200   308.38469      1014.4988      74512.167      1790.219     
     53300   308.51811      1015.369       74512.167      1790.469     
     53400   308.46714      1015.6454      74512.167      1789.6054    
     53500   308.20097      1015.2182      74512.167      1787.4416    
     53600   307.68901      1013.9788      74512.167      1783.7928    
     53700   306.90641      1011.8392      74512.167      1778.5088    
     53800   305.84278      1008.7657      74512.167      1771.5277    
     53900   304.51331      1004.8198      74512.167      1762.9438    
     54000   302.96765      1000.1913      74512.167      1753.0614    
     54100   301.29032      995.20029      74512.167      1742.3975    
     54200   299.58766      990.24775      74512.167      1731.6019    
     54300   297.96471      985.72956      74512.167      1721.3165    
     54400   296.50324      981.95409      74512.167      1712.0409    
     54500   295.25138      979.10294      74512.167      1704.069     
     54600   294.22634      977.24135      74512.167      1697.5062    
     54700   293.42435      976.35565      74512.167      1692.3296    
     54800   292.83114      976.39147      74512.167      1688.4519    
     54900   292.42942      977.28216      74512.167      1685.7673    
     55000   292.20294      978.96409      74512.167      1684.176     
     55100   292.13805      981.38218      74512.167      1683.594     
     55200   292.22381      984.49039      74512.167      1683.9535    
     55300   292.45137      988.24957      74512.167      1685.1994    
     55400   292.81305      992.62372      74512.167      1687.2831    
     55500   293.30123      997.57656      74512.167      1690.1567    
     55600   293.90731      1003.0672      74512.167      1693.7658    
     55700   294.6206       1009.0463      74512.167      1698.0435    
     55800   295.42746      1015.4533      74512.167      1702.9045    
     55900   296.3107       1022.2139      74512.167      1708.242     
     56000   297.24946      1029.2402      74512.167      1713.9268    
     56100   298.21984      1036.4325      74512.167      1719.8112    
     56200   299.196        1043.6843      74512.167      1725.7357    
     56300   300.15185      1050.8878      74512.167      1731.5393    
     56400   301.06283      1057.9413      74512.167      1737.0705    
     56500   301.90745      1064.7549      74512.167      1742.1968    
     56600   302.66834      1071.2534      74512.167      1746.8104    
     56700   303.33265      1077.3786      74512.167      1750.8313    
     56800   303.89194      1083.0882      74512.167      1754.2064    
     56900   304.3416       1088.3535      74512.167      1756.9057    
     57000   304.68026      1093.1571      74512.167      1758.9186    
     57100   304.909        1097.4897      74512.167      1760.2495    
     57200   305.03082      1101.3479      74512.167      1760.9139    
     57300   305.05015      1104.7328      74512.167      1760.936     
     57400   304.97262      1107.6485      74512.167      1760.3467    
     57500   304.80482      1110.1021      74512.167      1759.1829    
     57600   304.55432      1112.1035      74512.167      1757.487     
     57700   304.22966      1113.6659      74512.167      1755.307     
     57800   303.84038      1114.8064      74512.167      1752.6975    
     57900   303.39705      1115.5467      74512.167      1749.719     
     58000   302.91134      1115.9137      74512.167      1746.4393    
     58100   302.39584      1115.9391      74512.167      1742.9318    
     58200   301.86402      1115.66        74512.167      1739.2759    
     58300   301.32988      1115.1178      74512.167      1735.5545    
     58400   300.80761      1114.3572      74512.167      1731.8525    
     58500   300.31115      1113.4244      74512.167      1728.2535    
     58600   299.85366      1112.3656      74512.167      1724.8372    
     58700   299.447        1111.2246      74512.167      1721.676     
     58800   299.10124      1110.0413      74512.167      1718.8314    
     58900   298.82413      1108.8491      74512.167      1716.3518    
     59000   298.62067      1107.6728      74512.167      1714.2689    
     59100   298.49274      1106.5281      74512.167      1712.5959    
     59200   298.43883      1105.4191      74512.167      1711.3255    
     59300   298.454        1104.3392      74512.167      1710.4301    
     59400   298.53029      1103.2716      74512.167      1709.8637    
     59500   298.65757      1102.1929      74512.167      1709.5673    
     59600   298.82483      1101.0779      74512.167      1709.4771    
     59700   299.02156      1099.9046      74512.167      1709.5325    
     59800   299.23868      1098.6581      74512.167      1709.682     
     59900   299.46883      1097.3311      74512.167      1709.8848    
     60000   299.70616      1095.9238      74512.167      1710.1099    
     60100   299.9458       1094.4413      74512.167      1710.3324    
     60200   300.18342      1092.892       74512.167      1710.5312    
     60300   300.41491      1091.2863      74512.167      1710.6866    
     60400   300.6362       1089.6355      74512.167      1710.7793    
     60500   300.84318      1087.9511      74512.167      1710.7902    
     60600   301.03174      1086.2449      74512.167      1710.7       
     60700   301.19777      1084.5282      74512.167      1710.4893    
     60800   301.33726      1082.8117      74512.167      1710.1393    
     60900   301.44635      1081.1056      74512.167      1709.6316    
     61000   301.5214       1079.4188      74512.167      1708.9491    
     61100   301.55907      1077.7598      74512.167      1708.0757    
     61200   301.55637      1076.1354      74512.167      1706.9971    
     61300   301.51069      1074.5515      74512.167      1705.7007    
     61400   301.4199       1073.0126      74512.167      1704.176     
     61500   301.28231      1071.5221      74512.167      1702.415     
     61600   301.09679      1070.0822      74512.167      1700.4117    
     61700   300.86273      1068.6943      74512.167      1698.1635    
     61800   300.58016      1067.3588      74512.167      1695.6701    
     61900   300.2497       1066.0761      74512.167      1692.9349    
     62000   299.8727       1064.8462      74512.167      1689.965     
     62100   299.45128      1063.6698      74512.167      1686.7714    
     62200   298.98839      1062.5486      74512.167      1683.37      
     62300   298.48792      1061.4857      74512.167      1679.7821    
     62400   297.95481      1060.4868      74512.167      1676.0348    
     62500   297.39509      1059.5601      74512.167      1672.1616    
     62600   296.81599      1058.7171      74512.167      1668.2034    
     62700   296.22596      1057.9731      74512.167      1664.2079    
     62800   295.63466      1057.3476      74512.167      1660.2304    
     62900   295.05292      1056.8641      74512.167      1656.3334    
     63000   294.49267      1056.55        74512.167      1652.5858    
     63100   293.96684      1056.4371      74512.167      1649.0628    
     63200   293.48929      1056.5612      74512.167      1645.8455    
     63300   293.07482      1056.9623      74512.167      1643.0209    
     63400   292.73918      1057.6851      74512.167      1640.6821    
     63500   292.49927      1058.7801      74512.167      1638.9293    
     63600   292.37322      1060.3036      74512.167      1637.8708    
     63700   292.38055      1062.3189      74512.167      1637.6235    
     63800   292.5419       1064.8957      74512.167      1638.3119    
     63900   292.87838      1068.1066      74512.167      1640.0633    
     64000   293.40984      1072.0217      74512.167      1642.9982    
     64100   294.15194      1076.6973      74512.167      1647.2115    
     64200   295.11163      1082.1582      74512.167      1652.7457    
     64300   296.28169      1088.3779      74512.167      1659.5566    
     64400   297.63564      1095.2583      74512.167      1667.4832    
     64500   299.12573      1102.6225      74512.167      1676.2348    
     64600   300.68635      1110.227       74512.167      1685.4116    
     64700   302.24321      1117.7951      74512.167      1694.5608    
     64800   303.72539      1125.062       74512.167      1703.2505    
     64900   305.07546      1131.8125      74512.167      1711.1303    
     65000   306.25414      1137.8973      74512.167      1717.9607    
     65100   307.23943      1143.2307      74512.167      1723.607     
     65200   308.02251      1147.7742      74512.167      1728.0146    
     65300   308.60277      1151.5187      74512.167      1731.1787    
     65400   308.9839       1154.4695      74512.167      1733.1202    
     65500   309.17121      1156.6362      74512.167      1733.8695    
     65600   309.17042      1158.0292      74512.167      1733.4593    
     65700   308.98736      1158.6586      74512.167      1731.9228    
     65800   308.6285       1158.5361      74512.167      1729.2969    
     65900   308.10199      1157.68        74512.167      1725.6287    
     66000   307.41922      1156.1212      74512.167      1720.9852    
     66100   306.5965       1153.9098      74512.167      1715.4637    
     66200   305.65665      1151.1215      74512.167      1709.2013    
     66300   304.62978      1147.8614      74512.167      1702.38      
     66400   303.55273      1144.2616      74512.167      1695.2236    
     66500   302.46684      1140.4731      74512.167      1687.9833    
     66600   301.41405      1136.6525      74512.167      1680.915     
     66700   300.43248      1132.9441      74512.167      1674.2516    
     66800   299.55257      1129.4664      74512.167      1668.1799    
     66900   298.79483      1126.3032      74512.167      1662.8265    
     67000   298.16954      1123.5027      74512.167      1658.2562    
     67100   297.67796      1121.082       74512.167      1654.4794    
     67200   297.31462      1119.0345      74512.167      1651.4658    
     67300   297.06964      1117.3394      74512.167      1649.1586    
     67400   296.93086      1115.9686      74512.167      1647.4874    
     67500   296.88541      1114.8927      74512.167      1646.3781    
     67600   296.92069      1114.0839      74512.167      1645.758     
     67700   297.02497      1113.5177      74512.167      1645.5599    
     67800   297.18753      1113.1733      74512.167      1645.7226    
     67900   297.39868      1113.0336      74512.167      1646.1913    
     68000   297.64965      1113.0837      74512.167      1646.9166    
     68100   297.93245      1113.3104      74512.167      1647.8534    
     68200   298.2397       1113.7016      74512.167      1648.9602    
     68300   298.56456      1114.2454      74512.167      1650.1981    
     68400   298.90059      1114.9295      74512.167      1651.5306    
     68500   299.24174      1115.7411      74512.167      1652.9228    
     68600   299.5823       1116.6668      74512.167      1654.3417    
     68700   299.91692      1117.6926      74512.167      1655.7559    
     68800   300.2406       1118.8036      74512.167      1657.1356    
     68900   300.54869      1119.9847      74512.167      1658.4532    
     69000   300.83692      1121.2203      74512.167      1659.6824    
     69100   301.10142      1122.4948      74512.167      1660.7996    
     69200   301.33865      1123.7924      74512.167      1661.7824    
     69300   301.54543      1125.0972      74512.167      1662.6107    
     69400   301.71884      1126.3932      74512.167      1663.2656    
     69500   301.85608      1127.6641      74512.167      1663.7288    
     69600   301.95434      1128.8925      74512.167      1663.9816    
     69700   302.01047      1130.0589      74512.167      1664.0035    
     69800   302.02058      1131.1403      74512.167      1663.7689    
     69900   301.9794       1132.1078      74512.167      1663.2437    
     70000   301.8794       1132.9234      74512.167      1662.3801    
     70100   301.70965      1133.5357      74512.167      1661.1093    
     70200   301.4546       1133.8751      74512.167      1659.3343    
     70300   301.09346      1133.8518      74512.167      1656.9256    
     70400   300.60116      1133.3592      74512.167      1653.7279    
     70500   299.95252      1132.2893      74512.167      1649.5848    
     70600   299.12992      1130.5619      74512.167      1644.3859    
     70700   298.13252      1128.1585      74512.167      1638.1231    
     70800   296.98302      1125.1493      74512.167      1630.9319    
     70900   295.72811      1121.6933      74512.167      1623.094     
     71000   294.43157      1118.0143      74512.167      1614.9956    
     71100   293.1627       1114.3567      74512.167      1607.0563    
     71200   291.98472      1110.9435      74512.167      1599.659     
     71300   290.94737      1107.9481      74512.167      1593.1044    
     71400   290.0849       1105.4874      74512.167      1587.5991    
     71500   289.41834      1103.6302      74512.167      1583.2693    
     71600   288.95951      1102.4124      74512.167      1580.1851    
     71700   288.71503      1101.8519      74512.167      1578.3856    
     71800   288.68924      1101.9602      74512.167      1577.8962    
     71900   288.88586      1102.7479      74512.167      1578.7388    
     72000   289.30817      1104.2254      74512.167      1580.9331    
     72100   289.95785      1106.3988      74512.167      1584.4892    
     72200   290.83227      1109.2592      74512.167      1589.3914    
     72300   291.92053      1112.7679      74512.167      1595.5735    
     72400   293.19887      1116.8387      74512.167      1602.8911    
     72500   294.62726      1121.3262      74512.167      1611.1009    
     72600   296.14952      1126.0242      74512.167      1619.8611    
     72700   297.6986       1130.6868      74512.167      1628.7635    
     72800   299.2063       1135.0636      74512.167      1637.3931    
     72900   300.61384      1138.94        74512.167      1645.3925    
     73000   301.87917      1142.1638      74512.167      1652.506     
     73100   302.9788       1144.6521      74512.167      1658.5915    
     73200   303.90491      1146.3809      74512.167      1663.6022    
     73300   304.66037      1147.3661      74512.167      1667.5568    
     73400   305.25374      1147.6445      74512.167      1670.5085    
     73500   305.69563      1147.2609      74512.167      1672.5229    
     73600   305.9965       1146.2598      74512.167      1673.6649    
     73700   306.16572      1144.6818      74512.167      1673.9928    
     73800   306.21142      1142.5634      74512.167      1673.5571    
     73900   306.14073      1139.9378      74512.167      1672.403     
     74000   305.9603       1136.837       74512.167      1670.5722    
     74100   305.67687      1133.2935      74512.167      1668.1073    
     74200   305.2978       1129.3433      74512.167      1665.0551    
     74300   304.83166      1125.0263      74512.167      1661.4693    
     74400   304.28858      1120.3895      74512.167      1657.4137    
     74500   303.68057      1115.4864      74512.167      1652.9633    
     74600   303.02156      1110.3779      74512.167      1648.2049    
     74700   302.32721      1105.1312      74512.167      1643.2357    
     74800   301.61443      1099.8178      74512.167      1638.1607    
     74900   300.90072      1094.5108      74512.167      1633.0881    
     75000   300.20329      1089.2817      74512.167      1628.1243    
     75100   299.53821      1084.197       74512.167      1623.3687    
     75200   298.91971      1079.315       74512.167      1618.9088    
     75300   298.35961      1074.6846      74512.167      1614.8177    
     75400   297.8671       1070.3434      74512.167      1611.1518    
     75500   297.44866      1066.3185      74512.167      1607.9511    
     75600   297.1083       1062.6261      74512.167      1605.2401    
     75700   296.84782      1059.2739      74512.167      1603.0294    
     75800   296.66714      1056.2613      74512.167      1601.3184    
     75900   296.56464      1053.5814      74512.167      1600.0966    
     76000   296.53747      1051.2225      74512.167      1599.346     
     76100   296.58173      1049.1684      74512.167      1599.042     
     76200   296.69265      1047.3996      74512.167      1599.155     
     76300   296.86472      1045.8938      74512.167      1599.6505    
     76400   297.09172      1044.6262      74512.167      1600.49      
     76500   297.36679      1043.57        74512.167      1601.6309    
     76600   297.68246      1042.6968      74512.167      1603.0272    
     76700   298.03068      1041.9764      74512.167      1604.6296    
     76800   298.40293      1041.3778      74512.167      1606.386     
     76900   298.79025      1040.8695      74512.167      1608.242     
     77000   299.18346      1040.4193      74512.167      1610.1417    
     77100   299.57327      1039.9959      74512.167      1612.0292    
     77200   299.95055      1039.5694      74512.167      1613.8494    
     77300   300.30657      1039.1118      74512.167      1615.5501    
     77400   300.63332      1038.5984      74512.167      1617.0835    
     77500   300.92386      1038.0088      74512.167      1618.4084    
     77600   301.17275      1037.3287      74512.167      1619.4929    
     77700   301.37644      1036.5502      74512.167      1620.3166    
     77800   301.53365      1035.6744      74512.167      1620.8729    
     77900   301.64564      1034.7107      74512.167      1621.1706    
     78000   301.71608      1033.6773      74512.167      1621.2332    
     78100   301.75053      1032.5983      74512.167      1621.0953    
     78200   301.75539      1031.4997      74512.167      1620.7965    
     78300   301.73665      1030.4048      74512.167      1620.3735    
     78400   301.69895      1029.3302      74512.167      1619.8547    
     78500   301.64528      1028.2851      74512.167      1619.2577    
     78600   301.57716      1027.2713      74512.167      1618.5911    
     78700   301.49519      1026.2853      74512.167      1617.8572    
     78800   301.39957      1025.3207      74512.167      1617.0557    
     78900   301.29041      1024.369       74512.167      1616.1852    
     79000   301.16801      1023.4207      74512.167      1615.2451    
     79100   301.03293      1022.466       74512.167      1614.2364    
     79200   300.8861       1021.4948      74512.167      1613.1613    
     79300   300.72875      1020.4974      74512.167      1612.0242    
     79400   300.56243      1019.4643      74512.167      1610.8312    
     79500   300.38897      1018.3866      74512.167      1609.5897    
     79600   300.21044      1017.2557      74512.167      1608.3086    
     79700   300.02906      1016.0638      74512.167      1606.9977    
     79800   299.8472       1014.8043      74512.167      1605.6679    
     79900   299.66728      1013.471       74512.167      1604.3303    
     80000   299.49175      1012.0591      74512.167      1602.9968    
     80100   299.32298      1010.5648      74512.167      1601.6788    
     80200   299.1633       1008.9857      74512.167      1600.3878    
     80300   299.01489      1007.3206      74512.167      1599.135     
     80400   298.87978      1005.5699      74512.167      1597.9309    
     80500   298.75985      1003.7354      74512.167      1596.7858    
     80600   298.65677      1001.8205      74512.167      1595.709     
     80700   298.57205      999.83051      74512.167      1594.7097    
     80800   298.50706      997.77225      74512.167      1593.7963    
     80900   298.46302      995.65445      74512.167      1592.9772    
     81000   298.4411       993.48767      74512.167      1592.2607    
     81100   298.44241      991.28456      74512.167      1591.6553    
     81200   298.46806      989.0596       74512.167      1591.1702    
     81300   298.5192       986.82887      74512.167      1590.8148    
     81400   298.59699      984.61004      74512.167      1590.5989    
     81500   298.70259      982.42193      74512.167      1590.5328    
     81600   298.83702      980.28372      74512.167      1590.6261    
     81700   299.00105      978.21427      74512.167      1590.8867    
     81800   299.19497      976.23086      74512.167      1591.3198    
     81900   299.41841      974.34847      74512.167      1591.9267    
     82000   299.67004      972.57828      74512.167      1592.7027    
     82100   299.9475       970.92721      74512.167      1593.6366    
     82200   300.24719      969.39704      74512.167      1594.7096    
     82300   300.56428      967.98429      74512.167      1595.8952    
     82400   300.89277      966.67986      74512.167      1597.1595    
     82500   301.22558      965.47007      74512.167      1598.462     
     82600   301.55475      964.33664      74512.167      1599.7562    
     82700   301.8717       963.25816      74512.167      1600.9919    
     82800   302.16744      962.21038      74512.167      1602.1161    
     82900   302.43283      961.16749      74512.167      1603.0746    
     83000   302.6588       960.10296      74512.167      1603.8134    
     83100   302.83661      958.99043      74512.167      1604.2802    
     83200   302.958        957.80441      74512.167      1604.4257    
     83300   303.0154       956.52112      74512.167      1604.2044    
     83400   303.00208      955.11947      74512.167      1603.576     
     83500   302.91242      953.58135      74512.167      1602.5068    
     83600   302.74209      951.89281      74512.167      1600.9704    
     83700   302.48835      950.04553      74512.167      1598.9507    
     83800   302.15033      948.03729      74512.167      1596.4424    
     83900   301.72944      945.87427      74512.167      1593.4543    
     84000   301.22965      943.57138      74512.167      1590.0106    
     84100   300.65772      941.15365      74512.167      1586.1526    
     84200   300.02336      938.6567       74512.167      1581.9393    
     84300   299.33909      936.12628      74512.167      1577.447     
     84400   298.61991      933.617        74512.167      1572.767     
     84500   297.88265      931.18987      74512.167      1568.0016    
     84600   297.14521      928.9096       74512.167      1563.2597    
     84700   296.42566      926.84125      74512.167      1558.6512    
     84800   295.74146      925.04684      74512.167      1554.2819    
     84900   295.1088       923.58377      74512.167      1550.2502    
     85000   294.54229      922.5028       74512.167      1546.6445    
     85100   294.05487      921.84811      74512.167      1543.5429    
     85200   293.65799      921.65811      74512.167      1541.0146    
     85300   293.36205      921.96651      74512.167      1539.1219    
     85400   293.17691      922.80498      74512.167      1537.9241    
     85500   293.11254      924.20501      74512.167      1537.4808    
     85600   293.17955      926.20015      74512.167      1537.8557    
     85700   293.38966      928.82786      74512.167      1539.1189    
     85800   293.75584      932.12973      74512.167      1541.3481    
     85900   294.29171      936.14972      74512.167      1544.625     
     86000   295.01001      940.92826      74512.167      1549.0259    
     86100   295.91946      946.49058      74512.167      1554.6023    
     86200   297.02003      952.82921      74512.167      1561.3525    
     86300   298.29713      959.88199      74512.167      1569.186     
     86400   299.71672      967.51409      74512.167      1577.8934    
     86500   301.22421      975.51362      74512.167      1587.1401    
     86600   302.74948      983.61065      74512.167      1596.4967    
     86700   304.21748      991.51655      74512.167      1605.5038    
     86800   305.56066      998.97098      74512.167      1613.748     
     86900   306.72801      1005.7755      74512.167      1620.9166    
     87000   307.68818      1011.8056      74512.167      1626.8173    
     87100   308.4273       1017.0025      74512.167      1631.3642    
     87200   308.94424      1021.3554      74512.167      1634.5497    
     87300   309.24575      1024.8839      74512.167      1636.4141    
     87400   309.34279      1027.6239      74512.167      1637.0237    
     87500   309.24842      1029.6195      74512.167      1636.4577    
     87600   308.977        1030.9205      74512.167      1634.8034    
     87700   308.54431      1031.5827      74512.167      1632.1569    
     87800   307.96825      1031.67        74512.167      1628.6272    
     87900   307.26964      1031.2577      74512.167      1624.3414    
     88000   306.47292      1030.435       74512.167      1619.4486    
     88100   305.60619      1029.3049      74512.167      1614.1202    
     88200   304.70047      1027.9818      74512.167      1608.5458    
     88300   303.78804      1026.5844      74512.167      1602.922     
     88400   302.89997      1025.2276      74512.167      1597.4387    
     88500   302.06353      1024.0115      74512.167      1592.2621    
     88600   301.29992      1023.0136      74512.167      1587.5214    
     88700   300.62305      1022.2837      74512.167      1583.3013    
     88800   300.03944      1021.8445      74512.167      1579.6414    
     88900   299.54932      1021.6944      74512.167      1576.5428    
     89000   299.14826      1021.8145      74512.167      1573.9781    
     89100   298.82909      1022.1758      74512.167      1571.9033    
     89200   298.58353      1022.7449      74512.167      1570.2676    
     89300   298.40336      1023.4884      74512.167      1569.0202    
     89400   298.2811       1024.3763      74512.167      1568.1153    
     89500   298.21028      1025.3821      74512.167      1567.5131    
     89600   298.18545      1026.4832      74512.167      1567.1799    
     89700   298.202        1027.6608      74512.167      1567.0875    
     89800   298.25604      1028.8986      74512.167      1567.2117    
     89900   298.34413      1030.1825      74512.167      1567.5316    
     90000   298.46317      1031.4997      74512.167      1568.028     
     90100   298.61022      1032.8381      74512.167      1568.6829    
     90200   298.78244      1034.1866      74512.167      1569.4789    
     90300   298.977        1035.5335      74512.167      1570.3987    
     90400   299.19104      1036.8678      74512.167      1571.4248    
     90500   299.42169      1038.1776      74512.167      1572.5396    
     90600   299.66603      1039.4511      74512.167      1573.725     
     90700   299.92112      1040.6762      74512.167      1574.9629    
     90800   300.18404      1041.8404      74512.167      1576.2353    
     90900   300.45191      1042.9312      74512.167      1577.524     
     91000   300.7219       1043.9358      74512.167      1578.8114    
     91100   300.99126      1044.8413      74512.167      1580.0801    
     91200   301.25731      1045.6347      74512.167      1581.3128    
     91300   301.51742      1046.3028      74512.167      1582.4928    
     91400   301.76886      1046.832       74512.167      1583.6025    
     91500   302.00866      1047.2075      74512.167      1584.6229    
     91600   302.23332      1047.4124      74512.167      1585.5314    
     91700   302.43835      1047.4267      74512.167      1586.2998    
     91800   302.61773      1047.2246      74512.167      1586.8904    
     91900   302.76328      1046.7733      74512.167      1587.2526    
     92000   302.86426      1046.0309      74512.167      1587.3202    
     92100   302.90734      1044.947       74512.167      1587.0117    
     92200   302.87746      1043.4659      74512.167      1586.2349    
     92300   302.75937      1041.5326      74512.167      1584.8972    
     92400   302.53981      1039.1013      74512.167      1582.9181    
     92500   302.20972      1036.1433      74512.167      1580.2435    
     92600   301.76601      1032.654       74512.167      1576.8559    
     92700   301.21265      1028.6568      74512.167      1572.7812    
     92800   300.56089      1024.204       74512.167      1568.0903    
     92900   299.82872      1019.3742      74512.167      1562.8953    
     93000   299.03948      1014.2674      74512.167      1557.3412    
     93100   298.21991      1008.9971      74512.167      1551.5942    
     93200   297.39789      1003.6819      74512.167      1545.8274    
     93300   296.60027      998.43657      74512.167      1540.2077    
     93400   295.85115      993.36596      74512.167      1534.8851    
     93500   295.17083      988.56066      74512.167      1529.9867    
     93600   294.57551      984.09581      74512.167      1525.6143    
     93700   294.07758      980.03142      74512.167      1521.8464    
     93800   293.68622      976.41497      74512.167      1518.7417    
     93900   293.4082       973.28448      74512.167      1516.344     
     94000   293.24864      970.67056      74512.167      1514.6868    
     94100   293.21164      968.59938      74512.167      1513.7975    
     94200   293.30075      967.09363      74512.167      1513.6994    
     94300   293.51921      966.1743       74512.167      1514.4139    
     94400   293.86989      965.85966      74512.167      1515.9598    
     94500   294.35496      966.16482      74512.167      1518.3519    
     94600   294.9752       967.09835      74512.167      1521.5956    
     94700   295.72885      968.65883      74512.167      1525.681     
     94800   296.6102       970.82916      74512.167      1530.5741    
     94900   297.60799      973.57106      74512.167      1536.2067    
     95000   298.70403      976.8193       74512.167      1542.4681    
     95100   299.87264      980.48009      74512.167      1549.2019    
     95200   301.08126      984.43353      74512.167      1556.2097    
     95300   302.29261      988.5412       74512.167      1563.264     
     95400   303.4679       992.65875      74512.167      1570.1282    
     95500   304.57036      996.64851      74512.167      1576.5779    
     95600   305.5682       1000.3908      74512.167      1582.4188    
     95700   306.43621      1003.7897      74512.167      1587.4968    
     95800   307.15607      1006.7744      74512.167      1591.6998    
     95900   307.71556      1009.2959      74512.167      1594.9523    
     96000   308.10711      1011.3216      74512.167      1597.2074    
     96100   308.32636      1012.8301      74512.167      1598.4376    
     96200   308.37074      1013.8057      74512.167      1598.6259    
     96300   308.23841      1014.2344      74512.167      1597.7597    
     96400   307.92759      1014.1013      74512.167      1595.8265    
     96500   307.43623      1013.3895      74512.167      1592.8122    
     96600   306.76242      1012.0818      74512.167      1588.7028    
     96700   305.9054       1010.1642      74512.167      1583.4917    
     96800   304.86787      1007.635       74512.167      1577.193     
     96900   303.65951      1004.5176      74512.167      1569.8632    
     97000   302.30151      1000.8784      74512.167      1561.6289    
     97100   300.8309       996.84243      74512.167      1552.7134    
     97200   299.30228      992.60083      74512.167      1543.4472    
     97300   297.78461      988.3985       74512.167      1534.2482    
     97400   296.35243      984.50203      74512.167      1525.5689    
     97500   295.07403      981.15543      74512.167      1517.8234    
     97600   294.00102      978.54152      74512.167      1511.3246    
     97700   293.16285      976.76128      74512.167      1506.2502    
     97800   292.56655      975.83319      74512.167      1502.6415    
     97900   292.20034      975.70661      74512.167      1500.4252    
     98000   292.039        976.2819       74512.167      1499.4464    
     98100   292.04992      977.43333      74512.167      1499.5056    
     98200   292.19905      979.03067      74512.167      1500.3944    
     98300   292.45576      980.95789      74512.167      1501.9259    
     98400   292.79581      983.12395      74512.167      1503.9522    
     98500   293.20193      985.46484      74512.167      1506.3683    
     98600   293.66277      987.93952      74512.167      1509.1054    
     98700   294.17096      990.52251      74512.167      1512.1192    
     98800   294.72132      993.19708      74512.167      1515.3788    
     98900   295.30947      995.95024      74512.167      1518.8584    
     99000   295.93083      998.76841      74512.167      1522.531     
     99100   296.58014      1001.636       74512.167      1526.3656    
     99200   297.25122      1004.5341      74512.167      1530.3255    
     99300   297.93692      1007.4401      74512.167      1534.368     
     99400   298.62925      1010.329       74512.167      1538.4456    
     99500   299.31955      1013.1729      74512.167      1542.5067    
     99600   299.99879      1015.9426      74512.167      1546.4971    
     99700   300.65783      1018.6084      74512.167      1550.3622    
     99800   301.28763      1021.1415      74512.167      1554.0481    
     99900   301.87955      1023.5137      74512.167      1557.503     
    100000   302.42545      1025.6991      74512.167      1560.6784    
    100100   302.91781      1027.6736      74512.167      1563.5293    
    100200   303.34981      1029.4154      74512.167      1566.0151    
    100300   303.71525      1030.9048      74512.167      1568.0988    
    100400   304.00853      1032.1238      74512.167      1569.747     
    100500   304.22453      1033.0556      74512.167      1570.929     
    100600   304.35845      1033.6842      74512.167      1571.616     
    100700   304.40569      1033.9933      74512.167      1571.7803    
    100800   304.3616       1033.9659      74512.167      1571.3937    
    100900   304.22133      1033.5837      74512.167      1570.4267    
    101000   303.9797       1032.8258      74512.167      1568.8473    
    101100   303.6311       1031.6693      74512.167      1566.6209    
    101200   303.16961      1030.0893      74512.167      1563.7109    
    101300   302.58944      1028.0606      74512.167      1560.0814    
    101400   301.88583      1025.5608      74512.167      1555.7021    
    101500   301.05653      1022.5766      74512.167      1550.5584    
    101600   300.10392      1019.1112      74512.167      1544.6636    
    101700   299.03758      1015.1942      74512.167      1538.0747    
    101800   297.87646      1010.8898      74512.167      1530.906     
    101900   296.64995      1006.301       74512.167      1523.3352    
    102000   295.39677      1001.5655      74512.167      1515.597     
    102100   294.1615       996.84282      74512.167      1507.9618    
    102200   292.98959      992.29563      74512.167      1500.7051    
    102300   291.92231      988.07125      74512.167      1494.0771    
    102400   290.99328      984.28897      74512.167      1488.2817    
    102500   290.22739      981.03547      74512.167      1483.4689    
    102600   289.64167      978.36883      74512.167      1479.7415    
    102700   289.24757      976.32686      74512.167      1477.168     
    102800   289.05366      974.93738      74512.167      1475.7997    
    102900   289.06834      974.2288       74512.167      1475.6871    
    103000   289.30214      974.2385       74512.167      1476.8938    
    103100   289.7695       975.01976      74512.167      1479.5075    
    103200   290.48933      976.64391      74512.167      1483.6438    
    103300   291.48331      979.19406      74512.167      1489.4352    
    103400   292.76955      982.74148      74512.167      1496.9926    
    103500   294.34953      987.29685      74512.167      1506.3263    
    103600   296.18876      992.73773      74512.167      1517.2271    
    103700   298.19975      998.74502      74512.167      1529.1629    
    103800   300.2435       1004.8082      74512.167      1541.2875    
    103900   302.16027      1010.3403      74512.167      1552.6288    
    104000   303.81674      1014.8546      74512.167      1562.3756    
    104100   305.14011      1018.0907      74512.167      1570.0865    
    104200   306.12155      1020.0278      74512.167      1575.7101    
    104300   306.79568      1020.8072      74512.167      1579.4603    
    104400   307.21418      1020.6324      74512.167      1581.6542    
    104500   307.42643      1019.6979      74512.167      1582.5954    
    104600   307.47105      1018.1565      74512.167      1582.5212    
    104700   307.37504      1016.116       74512.167      1581.5976    
    104800   307.15645      1013.6497      74512.167      1579.936     
    104900   306.8277       1010.8085      74512.167      1577.6129    
    105000   306.39833      1007.6313      74512.167      1574.6871    
    105100   305.877        1004.1529      74512.167      1571.2118    
    105200   305.27286      1000.4091      74512.167      1567.243     
    105300   304.59638      996.43953      74512.167      1562.8445    
    105400   303.85976      992.2901       74512.167      1558.0907    
    105500   303.07692      988.01246      74512.167      1553.0663    
    105600   302.26328      983.66344      74512.167      1547.865     
    105700   301.43515      979.30302      74512.167      1542.586     
    105800   300.60908      974.99182      74512.167      1537.33      
    105900   299.80105      970.78826      74512.167      1532.1941    
    106000   299.02589      966.74611      74512.167      1527.2682    
    106100   298.29671      962.91264      74512.167      1522.6321    
    106200   297.62471      959.32767      74512.167      1518.3534    
    106300   297.01905      956.02316      74512.167      1514.4876    
    106400   296.48704      953.02362      74512.167      1511.0787    
    106500   296.03436      950.34724      74512.167      1508.1604    
    106600   295.66537      948.00672      74512.167      1505.7588    
    106700   295.3835       946.01071      74512.167      1503.8935    
    106800   295.19152      944.3649       74512.167      1502.5805    
    106900   295.09187      943.07352      74512.167      1501.8334    
    107000   295.08697      942.14002      74512.167      1501.6659    
    107100   295.17947      941.56827      74512.167      1502.0924    
    107200   295.37248      941.36379      74512.167      1503.1306    
    107300   295.66979      941.53438      74512.167      1504.802     
    107400   296.07603      942.0909       74512.167      1507.1332    
    107500   296.59665      943.04764      74512.167      1510.1559    
    107600   297.23769      944.4216       74512.167      1513.9057    
    107700   298.00513      946.22999      74512.167      1518.4178    
    107800   298.90359      948.4855       74512.167      1523.7189    
    107900   299.9342       951.18925      74512.167      1529.8154    
    108000   301.09177      954.31929      74512.167      1536.6747    
    108100   302.36165      957.81945      74512.167      1544.207     
    108200   303.7173       961.59071      74512.167      1552.2502    
    108300   305.11995      965.48934      74512.167      1560.5678    
    108400   306.52112      969.33713      74512.167      1568.8649    
    108500   307.86791      972.94         74512.167      1576.8191    
    108600   309.10924      976.11219      74512.167      1584.12      
    108700   310.20103      978.69518      74512.167      1590.5       
    108800   311.10878      980.56701      74512.167      1595.75      
    108900   311.80719      981.64081      74512.167      1599.7173    
    109000   312.27788      981.8558       74512.167      1602.2914    
    109100   312.50587      981.16418      74512.167      1603.3828    
    109200   312.47601      979.51713      74512.167      1602.9006    
    109300   312.16968      976.85248      74512.167      1600.733     
    109400   311.5626       973.0865       74512.167      1596.7333    
    109500   310.62558      968.11614      74512.167      1590.7247    
    109600   309.33137      961.84478      74512.167      1582.5422    
    109700   307.67258      954.24899      74512.167      1572.1416    
    109800   305.69153      945.49008      74512.167      1559.7817    
    109900   303.50861      936.02052      74512.167      1546.1975    
    110000   301.31832      926.56873      74512.167      1532.5758    
    110100   299.33295      917.92827      74512.167      1520.2117    
    110200   297.70433      910.66603      74512.167      1510.0315    
    110300   296.4823       904.96611      74512.167      1502.3384    
    110400   295.63117      900.69274      74512.167      1496.9141    
    110500   295.07632      897.56432      74512.167      1493.3029    
    110600   294.74381      895.3022       74512.167      1491.0529    
    110700   294.57811      893.69634      74512.167      1489.8248    
    110800   294.5432       892.61024      74512.167      1489.3983    
    110900   294.61741      891.96099      74512.167      1489.6405    
    111000   294.78796      891.69938      74512.167      1490.473     
    111100   295.04697      891.79482      74512.167      1491.8475    
    111200   295.38887      892.22547      74512.167      1493.7294    
    111300   295.80877      892.973        74512.167      1496.0888    
    111400   296.30139      894.01776      74512.167      1498.8935    
    111500   296.8604       895.33687      74512.167      1502.1047    
    111600   297.47802      896.90272      74512.167      1505.6754    
    111700   298.14485      898.68215      74512.167      1509.5483    
    111800   298.84983      900.63641      74512.167      1513.6566    
    111900   299.58043      902.72211      74512.167      1517.9245    
    112000   300.32303      904.89206      74512.167      1522.2696    
    112100   301.06334      907.09713      74512.167      1526.6057    
    112200   301.7869       909.28802      74512.167      1530.8456    
    112300   302.47957      911.41702      74512.167      1534.9041    
    112400   303.12795      913.43909      74512.167      1538.7005    
    112500   303.71964      915.31361      74512.167      1542.1606    
    112600   304.24342      917.00381      74512.167      1545.217     
    112700   304.68927      918.47736      74512.167      1547.8098    
    112800   305.04822      919.70558      74512.167      1549.8854    
    112900   305.31223      920.66286      74512.167      1551.3958    
    113000   305.47389      921.3253       74512.167      1552.2967    
    113100   305.52624      921.67001      74512.167      1552.5464    
    113200   305.46247      921.67395      74512.167      1552.1041    
    113300   305.27581      921.31312      74512.167      1550.9289    
    113400   304.95953      920.56283      74512.167      1548.9798    
    113500   304.50719      919.39849      74512.167      1546.2177    
    113600   303.91337      917.79808      74512.167      1542.6092    
    113700   303.17486      915.747        74512.167      1538.1345    
    113800   302.29261      913.24481      74512.167      1532.7984    
    113900   301.27403      910.31438      74512.167      1526.6454    
    114000   300.13552      907.01122      74512.167      1519.7744    
    114100   298.90403      903.42956      74512.167      1512.3485    
    114200   297.61687      899.70165      74512.167      1504.594     
    114300   296.31911      895.98817      74512.167      1496.7842    
    114400   295.05875      892.46061      74512.167      1489.2104    
    114500   293.88121      889.28045      74512.167      1482.148     
    114600   292.82477      886.58271      74512.167      1475.8289    
    114700   291.91814      884.46656      74512.167      1470.4267    
    114800   291.18058      882.99609      74512.167      1466.057     
    114900   290.62353      882.20645      74512.167      1462.7882    
    115000   290.25311      882.11361      74512.167      1460.6564    
    115100   290.0726       882.72316      74512.167      1459.68      
    115200   290.08439      884.0378       74512.167      1459.8724    
    115300   290.29146      886.0633       74512.167      1461.2508    
    115400   290.69801      888.81035      74512.167      1463.8396    
    115500   291.30935      892.29465      74512.167      1467.6707    
    115600   292.1305       896.53101      74512.167      1472.7736    
    115700   293.16295      901.52214      74512.167      1479.157     
    115800   294.39922      907.23743      74512.167      1486.7748    
    115900   295.81542      913.58502      74512.167      1495.4805    
    116000   297.36407      920.38583      74512.167      1504.9845    
    116100   298.97166      927.3632       74512.167      1514.8376    
    116200   300.54533      934.16834      74512.167      1524.4734    
    116300   301.98937      940.44196      74512.167      1533.3074    
    116400   303.22539      945.88957      74512.167      1540.8614    
    116500   304.20754      950.33863      74512.167      1546.8555    
    116600   304.92687      953.7546       74512.167      1551.235     
    116700   305.40477      956.21658      74512.167      1554.1301    
    116800   305.67964      957.86769      74512.167      1555.7755    
    116900   305.79308      958.86299      74512.167      1556.4246    
    117000   305.78037      959.33431      74512.167      1556.2929    
    117100   305.6672       959.37773      74512.167      1555.5372    
    117200   305.4705       959.05685      74512.167      1554.2609    
    117300   305.20103      958.41244      74512.167      1552.5297    
    117400   304.86595      957.47232      74512.167      1550.3877    
    117500   304.47066      956.25808      74512.167      1547.8682    
    117600   304.02015      954.79009      74512.167      1545.0019    
    117700   303.51974      953.09063      74512.167      1541.822     
    117800   302.97553      951.18531      74512.167      1538.3664    
    117900   302.39463      949.10376      74512.167      1534.679     
    118000   301.78514      946.88009      74512.167      1530.8103    
    118100   301.15608      944.55219      74512.167      1526.8162    
    118200   300.51718      942.16104      74512.167      1522.7571    
    118300   299.87853      939.74912      74512.167      1518.6958    
    118400   299.25036      937.35976      74512.167      1514.6957    
    118500   298.64264      935.03553      74512.167      1510.819     
    118600   298.06488      932.81719      74512.167      1507.1248    
    118700   297.52589      930.74281      74512.167      1503.6681    
    118800   297.03364      928.8473       74512.167      1500.4986    
    118900   296.59526      927.16179      74512.167      1497.6609    
    119000   296.21706      925.71401      74512.167      1495.1943    
    119100   295.90467      924.52872      74512.167      1493.1341    
    119200   295.66316      923.62806      74512.167      1491.5118    
    119300   295.49734      923.03235      74512.167      1490.3573    
    119400   295.41195      922.76113      74512.167      1489.6998    
    119500   295.41201      922.83469      74512.167      1489.5703    
    119600   295.50312      923.27448      74512.167      1490.0029    
    119700   295.69176      924.10521      74512.167      1491.0372    
    119800   295.98557      925.35521      74512.167      1492.7197    
    119900   296.39343      927.05736      74512.167      1495.1043    
    120000   296.92523      929.2481       74512.167      1498.2511    
Loop time of 613.781 on 1 procs for 100000 steps with 2048 atoms

Performance: 0.070 ns/day, 340.990 hours/ns, 162.924 timesteps/s, 333.669 katom-step/s
99.3% CPU use with 1 MPI tasks x 1 OpenMP threads

MPI task timing breakdown:
Section |  min time  |  avg time  |  max time  |%varavg| %total
---------------------------------------------------------------
Pair    | 560.75     | 560.75     | 560.75     |   0.0 | 91.36
Neigh   | 0.041054   | 0.041054   | 0.041054   |   0.0 |  0.01
Comm    | 7.7912     | 7.7912     | 7.7912     |   0.0 |  1.27
Output  | 24.619     | 24.619     | 24.619     |   0.0 |  4.01
Modify  | 17.159     | 17.159     | 17.159     |   0.0 |  2.80
Other   |            | 3.426      |            |       |  0.56

Nlocal:           2048 ave        2048 max        2048 min
Histogram: 1 0 0 0 0 0 0 0 0 0
Nghost:           5757 ave        5757 max        5757 min
Histogram: 1 0 0 0 0 0 0 0 0 0
Neighs:         202817 ave      202817 max      202817 min
Histogram: 1 0 0 0 0 0 0 0 0 0

Total # of neighbors = 202817
Ave neighs/atom = 99.031738
Neighbor list builds = 4
Dangerous builds = 0
unfix integrate2
Total wall time: 0:12:16
