
     Program BANDS v.7.4 starts on 17Nov2025 at 15:29: 7 

     This program is part of the open-source Quantum ESPRESSO suite
     for quantum simulation of materials; please cite
         "P. Giannozzi et al., J. Phys.:Condens. Matter 21 395502 (2009);
         "P. Giannozzi et al., J. Phys.:Condens. Matter 29 465901 (2017);
         "P. Giannozzi et al., J. Chem. Phys. 152 154105 (2020);
          URL http://www.quantum-espresso.org", 
     in publications or presentations arising from this work. More details at
     http://www.quantum-espresso.org/quote

     Parallel version (MPI & OpenMP), running on       6 processor cores
     Number of MPI processes:                 3
     Threads/MPI process:                     2

     MPI processes distributed on     1 nodes
     R & G space division:  proc/nbgrp/npool/nimage =       3
     27172 MiB available memory on the printing compute node when the environment starts


     Reading xml data from directory:

     ./tmp/silicon.save/
     file Si.pz-vbc.UPF: wavefunction(s)  3S renormalized

     IMPORTANT: XC functional enforced from input :
     Exchange-correlation= PZ
                           (   1   1   0   0   0   0   0)
     Any further DFT definition will be discarded
     Please, verify this is what you really want


     Parallelization info
     --------------------
     sticks:   dense  smooth     PW     G-vecs:    dense   smooth      PW
     Min         472     240     70                11914     4208     694
     Max         473     241     71                11919     4210     696
     Sum        1417     721    211                35749    12627    2085

     Using Slab Decomposition

     Reading collected, re-writing distributed wavefunctions
     high-symmetry point:  0.5000 0.5000 0.5000   x coordinate   0.0000
     high-symmetry point:  0.0000 0.0000 0.0000   x coordinate   0.8660
     high-symmetry point:  1.0000 0.0000 0.0000   x coordinate   1.8660
     high-symmetry point:  1.0000 0.2500 0.2500   x coordinate   2.2196
     high-symmetry point:  0.0000 0.0000 0.0000   x coordinate   3.2802

     Plottable bands (eV) written to file si_bands.dat.gnu
     Bands written to file si_bands.dat

 **************************************************************************

                    xk=(   0.50000,   0.50000,   0.50000  )

     zone border point and non-symmorphic group 
     symmetry decomposition not available

 **************************************************************************

 **************************************************************************

                    xk=(   0.47500,   0.47500,   0.47500  )

     point group C_3v (3m)  
     there are  3 classes
     the character table:

       E     2C3   3s_v 
A_1    1.00  1.00  1.00
A_2    1.00  1.00 -1.00
E      2.00 -1.00  0.00

     the symmetry operations in each class and the name of the first element:

     E        1
                                                                 
     2C3      2    3
                                                                 
     3s_v     4    5    6
                                                                 

     Band symmetry, C_3v (3m)   point group:

     e(  1 -  1) =     -3.53972  eV     1   --> A_1  L_1       
     e(  2 -  2) =     -0.82313  eV     1   --> A_1  L_1       
     e(  3 -  4) =      4.99287  eV     2   --> E    L_3       
     e(  5 -  5) =      7.67692  eV     1   --> A_1  L_1       
     e(  6 -  7) =      9.49511  eV     2   --> E    L_3       
     e(  8 -  8) =     13.74588  eV     1   --> A_1  L_1       

 **************************************************************************

 **************************************************************************

                    xk=(   0.45000,   0.45000,   0.45000  )

     Band symmetry, C_3v (3m)   point group:

     e(  1 -  1) =     -3.64205  eV     1   --> A_1  L_1       
     e(  2 -  2) =     -0.67396  eV     1   --> A_1  L_1       
     e(  3 -  4) =      5.00634  eV     2   --> E    L_3       
     e(  5 -  5) =      7.69253  eV     1   --> A_1  L_1       
     e(  6 -  7) =      9.51120  eV     2   --> E    L_3       
     e(  8 -  8) =     13.77104  eV     1   --> A_1  L_1       

 **************************************************************************

 **************************************************************************

                    xk=(   0.42500,   0.42500,   0.42500  )

     Band symmetry, C_3v (3m)   point group:

     e(  1 -  1) =     -3.79140  eV     1   --> A_1  L_1       
     e(  2 -  2) =     -0.44669  eV     1   --> A_1  L_1       
     e(  3 -  4) =      5.02878  eV     2   --> E    L_3       
     e(  5 -  5) =      7.71849  eV     1   --> A_1  L_1       
     e(  6 -  7) =      9.53676  eV     2   --> E    L_3       
     e(  8 -  8) =     13.81082  eV     1   --> A_1  L_1       

 **************************************************************************

 **************************************************************************

                    xk=(   0.40000,   0.40000,   0.40000  )

     Band symmetry, C_3v (3m)   point group:

     e(  1 -  1) =     -3.96885  eV     1   --> A_1  L_1       
     e(  2 -  2) =     -0.16040  eV     1   --> A_1  L_1       
     e(  3 -  4) =      5.06016  eV     2   --> E    L_3       
     e(  5 -  5) =      7.75470  eV     1   --> A_1  L_1       
     e(  6 -  7) =      9.56981  eV     2   --> E    L_3       
     e(  8 -  8) =     13.86094  eV     1   --> A_1  L_1       

 **************************************************************************

 **************************************************************************

                    xk=(   0.37500,   0.37500,   0.37500  )

     Band symmetry, C_3v (3m)   point group:

     e(  1 -  1) =     -4.15992  eV     1   --> A_1  L_1       
     e(  2 -  2) =      0.17014  eV     1   --> A_1  L_1       
     e(  3 -  4) =      5.10045  eV     2   --> E    L_3       
     e(  5 -  5) =      7.80100  eV     1   --> A_1  L_1       
     e(  6 -  7) =      9.60737  eV     2   --> E    L_3       
     e(  8 -  8) =     13.91229  eV     1   --> A_1  L_1       

 **************************************************************************

 **************************************************************************

                    xk=(   0.35000,   0.35000,   0.35000  )

     Band symmetry, C_3v (3m)   point group:

     e(  1 -  1) =     -4.35476  eV     1   --> A_1  L_1       
     e(  2 -  2) =      0.53470  eV     1   --> A_1  L_1       
     e(  3 -  4) =      5.14953  eV     2   --> E    L_3       
     e(  5 -  5) =      7.85715  eV     1   --> A_1  L_1       
     e(  6 -  7) =      9.64532  eV     2   --> E    L_3       
     e(  8 -  8) =     13.94445  eV     1   --> A_1  L_1       

 **************************************************************************

 **************************************************************************

                    xk=(   0.32500,   0.32500,   0.32500  )

     Band symmetry, C_3v (3m)   point group:

     e(  1 -  1) =     -4.54689  eV     1   --> A_1  L_1       
     e(  2 -  2) =      0.92631  eV     1   --> A_1  L_1       
     e(  3 -  4) =      5.20726  eV     2   --> E    L_3       
     e(  5 -  5) =      7.92280  eV     1   --> A_1  L_1       
     e(  6 -  7) =      9.67825  eV     2   --> E    L_3       
     e(  8 -  8) =     13.91231  eV     1   --> A_1  L_1       

 **************************************************************************

 **************************************************************************

                    xk=(   0.30000,   0.30000,   0.30000  )

     Band symmetry, C_3v (3m)   point group:

     e(  1 -  1) =     -4.73207  eV     1   --> A_1  L_1       
     e(  2 -  2) =      1.34006  eV     1   --> A_1  L_1       
     e(  3 -  4) =      5.27339  eV     2   --> E    L_3       
     e(  5 -  5) =      7.99745  eV     1   --> A_1  L_1       
     e(  6 -  7) =      9.69953  eV     2   --> E    L_3       
     e(  8 -  8) =     13.75115  eV     1   --> A_1  L_1       

 **************************************************************************

 **************************************************************************

                    xk=(   0.27500,   0.27500,   0.27500  )

     Band symmetry, C_3v (3m)   point group:

     e(  1 -  1) =     -4.90746  eV     1   --> A_1  L_1       
     e(  2 -  2) =      1.77228  eV     1   --> A_1  L_1       
     e(  3 -  4) =      5.34752  eV     2   --> E    L_3       
     e(  5 -  5) =      8.08039  eV     1   --> A_1  L_1       
     e(  6 -  7) =      9.70184  eV     2   --> E    L_3       
     e(  8 -  8) =     13.45299  eV     1   --> A_1  L_1       

 **************************************************************************

 **************************************************************************

                    xk=(   0.25000,   0.25000,   0.25000  )

     Band symmetry, C_3v (3m)   point group:

     e(  1 -  1) =     -5.07109  eV     1   --> A_1  L_1       
     e(  2 -  2) =      2.21992  eV     1   --> A_1  L_1       
     e(  3 -  4) =      5.42910  eV     2   --> E    L_3       
     e(  5 -  5) =      8.17065  eV     1   --> A_1  L_1       
     e(  6 -  7) =      9.67833  eV     2   --> E    L_3       
     e(  8 -  8) =     13.07400  eV     1   --> A_1  L_1       

 **************************************************************************

 **************************************************************************

                    xk=(   0.22500,   0.22500,   0.22500  )

     Band symmetry, C_3v (3m)   point group:

     e(  1 -  1) =     -5.22160  eV     1   --> A_1  L_1       
     e(  2 -  2) =      2.68015  eV     1   --> A_1  L_1       
     e(  3 -  4) =      5.51730  eV     2   --> E    L_3       
     e(  5 -  5) =      8.26684  eV     1   --> A_1  L_1       
     e(  6 -  7) =      9.62449  eV     2   --> E    L_3       
     e(  8 -  8) =     12.65725  eV     1   --> A_1  L_1       

 **************************************************************************

 **************************************************************************

                    xk=(   0.20000,   0.20000,   0.20000  )

     Band symmetry, C_3v (3m)   point group:

     e(  1 -  1) =     -5.35799  eV     1   --> A_1  L_1       
     e(  2 -  2) =      3.15005  eV     1   --> A_1  L_1       
     e(  3 -  4) =      5.61095  eV     2   --> E    L_3       
     e(  5 -  5) =      8.36707  eV     1   --> A_1  L_1       
     e(  6 -  7) =      9.53994  eV     2   --> E    L_3       
     e(  8 -  8) =     12.22253  eV     1   --> A_1  L_1       

 **************************************************************************

 **************************************************************************

                    xk=(   0.17500,   0.17500,   0.17500  )

     Band symmetry, C_3v (3m)   point group:

     e(  1 -  1) =     -5.47956  eV     1   --> A_1  L_1       
     e(  2 -  2) =      3.62617  eV     1   --> A_1  L_1       
     e(  3 -  4) =      5.70843  eV     2   --> E    L_3       
     e(  5 -  5) =      8.46867  eV     1   --> A_1  L_1       
     e(  6 -  7) =      9.42903  eV     2   --> E    L_3       
     e(  8 -  8) =     11.77932  eV     1   --> A_1  L_1       

 **************************************************************************

 **************************************************************************

                    xk=(   0.15000,   0.15000,   0.15000  )

     Band symmetry, C_3v (3m)   point group:

     e(  1 -  1) =     -5.58574  eV     1   --> A_1  L_1       
     e(  2 -  2) =      4.10408  eV     1   --> A_1  L_1       
     e(  3 -  4) =      5.80748  eV     2   --> E    L_3       
     e(  5 -  5) =      8.56791  eV     1   --> A_1  L_1       
     e(  6 -  7) =      9.29992  eV     2   --> E    L_3       
     e(  8 -  8) =     11.33424  eV     1   --> A_1  L_1       

 **************************************************************************

 **************************************************************************

                    xk=(   0.12500,   0.12500,   0.12500  )

     Band symmetry, C_3v (3m)   point group:

     e(  1 -  1) =     -5.67615  eV     1   --> A_1  L_1       
     e(  2 -  2) =      4.57746  eV     1   --> A_1  L_1       
     e(  3 -  4) =      5.90502  eV     2   --> E    L_3       
     e(  5 -  5) =      8.65944  eV     1   --> A_1  L_1       
     e(  6 -  7) =      9.16296  eV     2   --> E    L_3       
     e(  8 -  8) =     10.89510  eV     1   --> A_1  L_1       

 **************************************************************************

 **************************************************************************

                    xk=(   0.10000,   0.10000,   0.10000  )

     Band symmetry, C_3v (3m)   point group:

     e(  1 -  1) =     -5.75048  eV     1   --> A_1  L_1       
     e(  2 -  2) =      5.03658  eV     1   --> A_1  L_1       
     e(  3 -  4) =      5.99703  eV     2   --> E    L_3       
     e(  5 -  5) =      8.73534  eV     1   --> A_1  L_1       
     e(  6 -  7) =      9.02920  eV     2   --> E    L_3       
     e(  8 -  8) =     10.47450  eV     1   --> A_1  L_1       

 **************************************************************************

 **************************************************************************

                    xk=(   0.07500,   0.07500,   0.07500  )

     Band symmetry, C_3v (3m)   point group:

     e(  1 -  1) =     -5.80850  eV     1   --> A_1  L_1       
     e(  2 -  2) =      5.46530  eV     1   --> A_1  L_1       
     e(  3 -  4) =      6.07836  eV     2   --> E    L_3       
     e(  5 -  5) =      8.78384  eV     1   --> A_1  L_1       
     e(  6 -  7) =      8.90964  eV     2   --> E    L_3       
     e(  8 -  8) =     10.09478  eV     1   --> A_1  L_1       

 **************************************************************************

 **************************************************************************

                    xk=(   0.05000,   0.05000,   0.05000  )

     Band symmetry, C_3v (3m)   point group:

     e(  1 -  1) =     -5.85005  eV     1   --> A_1  L_1       
     e(  2 -  2) =      5.83558  eV     1   --> A_1  L_1       
     e(  3 -  4) =      6.14304  eV     2   --> E    L_3       
     e(  5 -  5) =      8.79048  eV     1   --> A_1  L_1       
     e(  6 -  7) =      8.81467  eV     2   --> E    L_3       
     e(  8 -  8) =      9.79280  eV     1   --> A_1  L_1       

 **************************************************************************

 **************************************************************************

                    xk=(   0.02500,   0.02500,   0.02500  )

     Band symmetry, C_3v (3m)   point group:

     e(  1 -  1) =     -5.87503  eV     1   --> A_1  L_1       
     e(  2 -  2) =      6.10054  eV     1   --> A_1  L_1       
     e(  3 -  4) =      6.18503  eV     2   --> E    L_3       
     e(  5 -  6) =      8.75335  eV     2   --> E    L_3       
     e(  7 -  7) =      8.75694  eV     1   --> A_1  L_1       
     e(  8 -  8) =      9.60874  eV     1   --> A_1  L_1       

 **************************************************************************

 **************************************************************************

                    xk=(   0.00000,   0.00000,   0.00000  )

     point group O_h (m-3m) 
     there are 10 classes
     the character table:

       E     8C3   3C2   6C4   6C2'  i     8S6   3s_h  6S4   6s_d 
A_1g   1.00  1.00  1.00  1.00  1.00  1.00  1.00  1.00  1.00  1.00
A_2g   1.00  1.00  1.00 -1.00 -1.00  1.00  1.00  1.00 -1.00 -1.00
E_g    2.00 -1.00  2.00  0.00  0.00  2.00 -1.00  2.00  0.00  0.00
T_1g   3.00  0.00 -1.00  1.00 -1.00  3.00  0.00 -1.00  1.00 -1.00
T_2g   3.00  0.00 -1.00 -1.00  1.00  3.00  0.00 -1.00 -1.00  1.00
A_1u   1.00  1.00  1.00  1.00  1.00 -1.00 -1.00 -1.00 -1.00 -1.00
A_2u   1.00  1.00  1.00 -1.00 -1.00 -1.00 -1.00 -1.00  1.00  1.00
E_u    2.00 -1.00  2.00  0.00  0.00 -2.00  1.00 -2.00  0.00  0.00
T_1u   3.00  0.00 -1.00  1.00 -1.00 -3.00  0.00  1.00 -1.00  1.00
T_2u   3.00  0.00 -1.00 -1.00  1.00 -3.00  0.00  1.00  1.00 -1.00

     the symmetry operations in each class and the name of the first element:

     E        1
                                                                 
     8C3     17   19   20   18   24   21   22   23
                                                                 
     3C2      2    4    3
                                                                 
     6C4      7    8   15   16   12   11
                                                                 
     6C2'     5    6   14   13   10    9
                                                                 
     i       25
                                                                 
     8S6     41   43   44   42   48   45   46   47
                                                                 
     3s_h    26   28   27
                                                                 
     6S4     31   32   39   40   36   35
                                                                 
     6s_d    29   30   38   37   34   33
                                                                 

     Band symmetry, O_h (m-3m)  point group:

     e(  1 -  1) =     -5.88336  eV     1   --> A_1g G_1   G_1+
     e(  2 -  4) =      6.19963  eV     3   --> T_2g G_25' G_5+
     e(  5 -  7) =      8.73213  eV     3   --> T_1u G_15  G_4-
     e(  8 -  8) =      9.55070  eV     1   --> A_2u G_2'  G_2-

 **************************************************************************

 **************************************************************************

                    xk=(   0.03333,   0.00000,   0.00000  )

     point group C_4v (4mm) 
     there are  5 classes
     the character table:

       E     2C4   C2    2s_v  2s_d 
A_1    1.00  1.00  1.00  1.00  1.00
A_2    1.00  1.00  1.00 -1.00 -1.00
B_1    1.00 -1.00  1.00  1.00 -1.00
B_2    1.00 -1.00  1.00 -1.00  1.00
E      2.00  0.00 -2.00  0.00  0.00

     the symmetry operations in each class and the name of the first element:

     E        1
                                                                 
     2C4      3    4
                                                                 
     C2       2
                                                                 
     2s_v     5    6
                                                                 
     2s_d     7    8
                                                                 

     Band symmetry, C_4v (4mm)  point group:

     e(  1 -  1) =     -5.87842  eV     1   --> A_1  G_1 D_1   
     e(  2 -  2) =      6.16591  eV     1   --> B_2  G_4 D_2'  
     e(  3 -  4) =      6.17781  eV     2   --> E    G_5 D_5   
     e(  5 -  5) =      8.71910  eV     1   --> A_1  G_1 D_1   
     e(  6 -  7) =      8.75991  eV     2   --> E    G_5 D_5   
     e(  8 -  8) =      9.58373  eV     1   --> B_2  G_4 D_2'  

 **************************************************************************

 **************************************************************************

                    xk=(   0.06667,   0.00000,   0.00000  )

     Band symmetry, C_4v (4mm)  point group:

     e(  1 -  1) =     -5.86361  eV     1   --> A_1  G_1 D_1   
     e(  2 -  2) =      6.06873  eV     1   --> B_2  G_4 D_2'  
     e(  3 -  4) =      6.11518  eV     2   --> E    G_5 D_5   
     e(  5 -  5) =      8.68078  eV     1   --> A_1  G_1 D_1   
     e(  6 -  7) =      8.84046  eV     2   --> E    G_5 D_5   
     e(  8 -  8) =      9.67824  eV     1   --> B_2  G_4 D_2'  

 **************************************************************************

 **************************************************************************

                    xk=(   0.10000,   0.00000,   0.00000  )

     Band symmetry, C_4v (4mm)  point group:

     e(  1 -  1) =     -5.83893  eV     1   --> A_1  G_1 D_1   
     e(  2 -  2) =      5.91801  eV     1   --> B_2  G_4 D_2'  
     e(  3 -  4) =      6.01879  eV     2   --> E    G_5 D_5   
     e(  5 -  5) =      8.61929  eV     1   --> A_1  G_1 D_1   
     e(  6 -  7) =      8.96665  eV     2   --> E    G_5 D_5   
     e(  8 -  8) =      9.82220  eV     1   --> B_2  G_4 D_2'  

 **************************************************************************

 **************************************************************************

                    xk=(   0.13333,   0.00000,   0.00000  )

     Band symmetry, C_4v (4mm)  point group:

     e(  1 -  1) =     -5.80441  eV     1   --> A_1  G_1 D_1   
     e(  2 -  2) =      5.72562  eV     1   --> B_2  G_4 D_2'  
     e(  3 -  4) =      5.89724  eV     2   --> E    G_5 D_5   
     e(  5 -  5) =      8.53773  eV     1   --> A_1  G_1 D_1   
     e(  6 -  7) =      9.12983  eV     2   --> E    G_5 D_5   
     e(  8 -  8) =      9.99956  eV     1   --> B_2  G_4 D_2'  

 **************************************************************************

 **************************************************************************

                    xk=(   0.16667,   0.00000,   0.00000  )

     Band symmetry, C_4v (4mm)  point group:

     e(  1 -  1) =     -5.76006  eV     1   --> A_1  G_1 D_1   
     e(  2 -  2) =      5.50239  eV     1   --> B_2  G_4 D_2'  
     e(  3 -  4) =      5.75847  eV     2   --> E    G_5 D_5   
     e(  5 -  5) =      8.43973  eV     1   --> A_1  G_1 D_1   
     e(  6 -  7) =      9.32195  eV     2   --> E    G_5 D_5   
     e(  8 -  8) =     10.19188  eV     1   --> B_2  G_4 D_2'  

 **************************************************************************

 **************************************************************************

                    xk=(   0.20000,   0.00000,   0.00000  )

     Band symmetry, C_4v (4mm)  point group:

     e(  1 -  1) =     -5.70591  eV     1   --> A_1  G_1 D_1   
     e(  2 -  2) =      5.25684  eV     1   --> B_2  G_4 D_2'  
     e(  3 -  4) =      5.60890  eV     2   --> E    G_5 D_5   
     e(  5 -  5) =      8.32905  eV     1   --> A_1  G_1 D_1   
     e(  6 -  7) =      9.53649  eV     2   --> E    G_5 D_5   
     e(  8 -  8) =     10.37704  eV     1   --> B_2  G_4 D_2'  

 **************************************************************************

 **************************************************************************

                    xk=(   0.23333,   0.00000,   0.00000  )

     Band symmetry, C_4v (4mm)  point group:

     e(  1 -  1) =     -5.64199  eV     1   --> A_1  G_1 D_1   
     e(  2 -  2) =      4.99526  eV     1   --> B_2  G_4 D_2'  
     e(  3 -  4) =      5.45337  eV     2   --> E    G_5 D_5   
     e(  5 -  5) =      8.20925  eV     1   --> A_1  G_1 D_1   
     e(  6 -  7) =      9.76847  eV     2   --> E    G_5 D_5   
     e(  8 -  8) =     10.52573  eV     1   --> B_2  G_4 D_2'  

 **************************************************************************

 **************************************************************************

                    xk=(   0.26667,   0.00000,   0.00000  )

     Band symmetry, C_4v (4mm)  point group:

     e(  1 -  1) =     -5.56835  eV     1   --> A_1  G_1 D_1   
     e(  2 -  2) =      4.72213  eV     1   --> B_2  G_4 D_2'  
     e(  3 -  4) =      5.29543  eV     2   --> E    G_5 D_5   
     e(  5 -  5) =      8.08355  eV     1   --> A_1  G_1 D_1   
     e(  6 -  7) =     10.01420  eV     2   --> E    G_5 D_5   
     e(  8 -  8) =     10.60120  eV     1   --> B_2  G_4 D_2'  

 **************************************************************************

 **************************************************************************

                    xk=(   0.30000,   0.00000,   0.00000  )

     Band symmetry, C_4v (4mm)  point group:

     e(  1 -  1) =     -5.48502  eV     1   --> A_1  G_1 D_1   
     e(  2 -  2) =      4.44063  eV     1   --> B_2  G_4 D_2'  
     e(  3 -  4) =      5.13768  eV     2   --> E    G_5 D_5   
     e(  5 -  5) =      7.95475  eV     1   --> A_1  G_1 D_1   
     e(  6 -  7) =     10.27093  eV     2   --> E    G_5 D_5   
     e(  8 -  8) =     10.57426  eV     1   --> B_2  G_4 D_2'  

 **************************************************************************

 **************************************************************************

                    xk=(   0.33333,   0.00000,   0.00000  )

     Band symmetry, C_4v (4mm)  point group:

     e(  1 -  1) =     -5.39207  eV     1   --> A_1  G_1 D_1   
     e(  2 -  2) =      4.15299  eV     1   --> B_2  G_4 D_2'  
     e(  3 -  4) =      4.98205  eV     2   --> E    G_5 D_5   
     e(  5 -  5) =      7.82522  eV     1   --> A_1  G_1 D_1   
     e(  6 -  6) =     10.44733  eV     1   --> B_2  G_4 D_2'  
     e(  7 -  8) =     10.53660  eV     2   --> E    G_5 D_5   

 **************************************************************************

 **************************************************************************

                    xk=(   0.36667,   0.00000,   0.00000  )

     Band symmetry, C_4v (4mm)  point group:

     e(  1 -  1) =     -5.28956  eV     1   --> A_1  G_1 D_1   
     e(  2 -  2) =      3.86083  eV     1   --> B_2  G_4 D_2'  
     e(  3 -  4) =      4.82995  eV     2   --> E    G_5 D_5   
     e(  5 -  5) =      7.69699  eV     1   --> A_1  G_1 D_1   
     e(  6 -  6) =     10.24966  eV     1   --> B_2  G_4 D_2'  
     e(  7 -  8) =     10.80962  eV     2   --> E    G_5 D_5   

 **************************************************************************

 **************************************************************************

                    xk=(   0.40000,   0.00000,   0.00000  )

     Band symmetry, C_4v (4mm)  point group:

     e(  1 -  1) =     -5.17755  eV     1   --> A_1  G_1 D_1   
     e(  2 -  2) =      3.56533  eV     1   --> B_2  G_4 D_2'  
     e(  3 -  4) =      4.68248  eV     2   --> E    G_5 D_5   
     e(  5 -  5) =      7.57173  eV     1   --> A_1  G_1 D_1   
     e(  6 -  6) =     10.01200  eV     1   --> B_2  G_4 D_2'  
     e(  7 -  8) =     11.08878  eV     2   --> E    G_5 D_5   

 **************************************************************************

 **************************************************************************

                    xk=(   0.43333,   0.00000,   0.00000  )

     Band symmetry, C_4v (4mm)  point group:

     e(  1 -  1) =     -5.05612  eV     1   --> A_1  G_1 D_1   
     e(  2 -  2) =      3.26738  eV     1   --> B_2  G_4 D_2'  
     e(  3 -  4) =      4.54048  eV     2   --> E    G_5 D_5   
     e(  5 -  5) =      7.45085  eV     1   --> A_1  G_1 D_1   
     e(  6 -  6) =      9.75544  eV     1   --> B_2  G_4 D_2'  
     e(  7 -  8) =     11.37315  eV     2   --> E    G_5 D_5   

 **************************************************************************

 **************************************************************************

                    xk=(   0.46667,   0.00000,   0.00000  )

     Band symmetry, C_4v (4mm)  point group:

     e(  1 -  1) =     -4.92536  eV     1   --> A_1  G_1 D_1   
     e(  2 -  2) =      2.96766  eV     1   --> B_2  G_4 D_2'  
     e(  3 -  4) =      4.40459  eV     2   --> E    G_5 D_5   
     e(  5 -  5) =      7.33552  eV     1   --> A_1  G_1 D_1   
     e(  6 -  6) =      9.49275  eV     1   --> B_2  G_4 D_2'  
     e(  7 -  8) =     11.66197  eV     2   --> E    G_5 D_5   

 **************************************************************************

 **************************************************************************

                    xk=(   0.50000,   0.00000,   0.00000  )

     Band symmetry, C_4v (4mm)  point group:

     e(  1 -  1) =     -4.78536  eV     1   --> A_1  G_1 D_1   
     e(  2 -  2) =      2.66676  eV     1   --> B_2  G_4 D_2'  
     e(  3 -  4) =      4.27533  eV     2   --> E    G_5 D_5   
     e(  5 -  5) =      7.22673  eV     1   --> A_1  G_1 D_1   
     e(  6 -  6) =      9.23157  eV     1   --> B_2  G_4 D_2'  
     e(  7 -  8) =     11.95467  eV     2   --> E    G_5 D_5   

 **************************************************************************

 **************************************************************************

                    xk=(   0.53333,   0.00000,   0.00000  )

     Band symmetry, C_4v (4mm)  point group:

     e(  1 -  1) =     -4.63624  eV     1   --> A_1  G_1 D_1   
     e(  2 -  2) =      2.36518  eV     1   --> B_2  G_4 D_2'  
     e(  3 -  4) =      4.15313  eV     2   --> E    G_5 D_5   
     e(  5 -  5) =      7.12532  eV     1   --> A_1  G_1 D_1   
     e(  6 -  6) =      8.97665  eV     1   --> B_2  G_4 D_2'  
     e(  7 -  8) =     12.25078  eV     2   --> E    G_5 D_5   

 **************************************************************************

 **************************************************************************

                    xk=(   0.56667,   0.00000,   0.00000  )

     Band symmetry, C_4v (4mm)  point group:

     e(  1 -  1) =     -4.47810  eV     1   --> A_1  G_1 D_1   
     e(  2 -  2) =      2.06338  eV     1   --> B_2  G_4 D_2'  
     e(  3 -  4) =      4.03833  eV     2   --> E    G_5 D_5   
     e(  5 -  5) =      7.03204  eV     1   --> A_1  G_1 D_1   
     e(  6 -  6) =      8.73099  eV     1   --> B_2  G_4 D_2'  
     e(  7 -  8) =     12.54995  eV     2   --> E    G_5 D_5   

 **************************************************************************

 **************************************************************************

                    xk=(   0.60000,   0.00000,   0.00000  )

     Band symmetry, C_4v (4mm)  point group:

     e(  1 -  1) =     -4.31107  eV     1   --> A_1  G_1 D_1   
     e(  2 -  2) =      1.76179  eV     1   --> B_2  G_4 D_2'  
     e(  3 -  4) =      3.93121  eV     2   --> E    G_5 D_5   
     e(  5 -  5) =      6.94749  eV     1   --> A_1  G_1 D_1   
     e(  6 -  6) =      8.49661  eV     1   --> B_2  G_4 D_2'  
     e(  7 -  8) =     12.85193  eV     2   --> E    G_5 D_5   

 **************************************************************************

 **************************************************************************

                    xk=(   0.63333,   0.00000,   0.00000  )

     Band symmetry, C_4v (4mm)  point group:

     e(  1 -  1) =     -4.13529  eV     1   --> A_1  G_1 D_1   
     e(  2 -  2) =      1.46086  eV     1   --> B_2  G_4 D_2'  
     e(  3 -  4) =      3.83200  eV     2   --> E    G_5 D_5   
     e(  5 -  5) =      6.87224  eV     1   --> A_1  G_1 D_1   
     e(  6 -  6) =      8.27482  eV     1   --> B_2  G_4 D_2'  
     e(  7 -  8) =     13.15650  eV     2   --> E    G_5 D_5   

 **************************************************************************

 **************************************************************************

                    xk=(   0.66667,   0.00000,   0.00000  )

     Band symmetry, C_4v (4mm)  point group:

     e(  1 -  1) =     -3.95092  eV     1   --> A_1  G_1 D_1   
     e(  2 -  2) =      1.16101  eV     1   --> B_2  G_4 D_2'  
     e(  3 -  4) =      3.74090  eV     2   --> E    G_5 D_5   
     e(  5 -  5) =      6.80678  eV     1   --> A_1  G_1 D_1   
     e(  6 -  6) =      8.06650  eV     1   --> B_2  G_4 D_2'  
     e(  7 -  8) =     13.46350  eV     2   --> E    G_5 D_5   

 **************************************************************************

 **************************************************************************

                    xk=(   0.70000,   0.00000,   0.00000  )

     Band symmetry, C_4v (4mm)  point group:

     e(  1 -  1) =     -3.75811  eV     1   --> A_1  G_1 D_1   
     e(  2 -  2) =      0.86270  eV     1   --> B_2  G_4 D_2'  
     e(  3 -  4) =      3.65806  eV     2   --> E    G_5 D_5   
     e(  5 -  5) =      6.75153  eV     1   --> A_1  G_1 D_1   
     e(  6 -  6) =      7.87221  eV     1   --> B_2  G_4 D_2'  
     e(  7 -  8) =     13.77275  eV     2   --> E    G_5 D_5   

 **************************************************************************

 **************************************************************************

                    xk=(   0.73333,   0.00000,   0.00000  )

     Band symmetry, C_4v (4mm)  point group:

     e(  1 -  1) =     -3.55705  eV     1   --> A_1  G_1 D_1   
     e(  2 -  2) =      0.56638  eV     1   --> B_2  G_4 D_2'  
     e(  3 -  4) =      3.58363  eV     2   --> E    G_5 D_5   
     e(  5 -  5) =      6.70690  eV     1   --> A_1  G_1 D_1   
     e(  6 -  6) =      7.69231  eV     1   --> B_2  G_4 D_2'  
     e(  7 -  8) =     14.08407  eV     2   --> E    G_5 D_5   

 **************************************************************************

 **************************************************************************

                    xk=(   0.76667,   0.00000,   0.00000  )

     Band symmetry, C_4v (4mm)  point group:

     e(  1 -  1) =     -3.34794  eV     1   --> A_1  G_1 D_1   
     e(  2 -  2) =      0.27250  eV     1   --> B_2  G_4 D_2'  
     e(  3 -  4) =      3.51772  eV     2   --> E    G_5 D_5   
     e(  5 -  5) =      6.67328  eV     1   --> A_1  G_1 D_1   
     e(  6 -  6) =      7.52697  eV     1   --> B_2  G_4 D_2'  
     e(  7 -  8) =     14.39721  eV     2   --> E    G_5 D_5   

 **************************************************************************

 **************************************************************************

                    xk=(   0.80000,   0.00000,   0.00000  )

     Band symmetry, C_4v (4mm)  point group:

     e(  1 -  1) =     -3.13098  eV     1   --> A_1  G_1 D_1   
     e(  2 -  2) =     -0.01848  eV     1   --> B_2  G_4 D_2'  
     e(  3 -  4) =      3.46042  eV     2   --> E    G_5 D_5   
     e(  5 -  5) =      6.65100  eV     1   --> A_1  G_1 D_1   
     e(  6 -  6) =      7.37626  eV     1   --> B_2  G_4 D_2'  
     e(  7 -  8) =     14.71166  eV     2   --> E    G_5 D_5   

 **************************************************************************

 **************************************************************************

                    xk=(   0.83333,   0.00000,   0.00000  )

     Band symmetry, C_4v (4mm)  point group:

     e(  1 -  1) =     -2.90640  eV     1   --> A_1  G_1 D_1   
     e(  2 -  2) =     -0.30610  eV     1   --> B_2  G_4 D_2'  
     e(  3 -  4) =      3.41182  eV     2   --> E    G_5 D_5   
     e(  5 -  5) =      6.64038  eV     1   --> A_1  G_1 D_1   
     e(  6 -  6) =      7.24012  eV     1   --> B_2  G_4 D_2'  
     e(  7 -  8) =     15.02657  eV     2   --> E    G_5 D_5   

 **************************************************************************

 **************************************************************************

                    xk=(   0.86667,   0.00000,   0.00000  )

     Band symmetry, C_4v (4mm)  point group:

     e(  1 -  1) =     -2.67446  eV     1   --> A_1  G_1 D_1   
     e(  2 -  2) =     -0.58992  eV     1   --> B_2  G_4 D_2'  
     e(  3 -  4) =      3.37197  eV     2   --> E    G_5 D_5   
     e(  5 -  5) =      6.64175  eV     1   --> A_1  G_1 D_1   
     e(  6 -  6) =      7.11847  eV     1   --> B_2  G_4 D_2'  
     e(  7 -  8) =     15.34018  eV     2   --> E    G_5 D_5   

 **************************************************************************

 **************************************************************************

                    xk=(   0.90000,   0.00000,   0.00000  )

     Band symmetry, C_4v (4mm)  point group:

     e(  1 -  1) =     -2.43541  eV     1   --> A_1  G_1 D_1   
     e(  2 -  2) =     -0.86949  eV     1   --> B_2  G_4 D_2'  
     e(  3 -  4) =      3.34092  eV     2   --> E    G_5 D_5   
     e(  5 -  5) =      6.65541  eV     1   --> A_1  G_1 D_1   
     e(  6 -  6) =      7.01113  eV     1   --> B_2  G_4 D_2'  
     e(  7 -  8) =     15.64866  eV     2   --> E    G_5 D_5   

 **************************************************************************

 **************************************************************************

                    xk=(   0.93333,   0.00000,   0.00000  )

     Band symmetry, C_4v (4mm)  point group:

     e(  1 -  1) =     -2.18955  eV     1   --> A_1  G_1 D_1   
     e(  2 -  2) =     -1.14441  eV     1   --> B_2  G_4 D_2'  
     e(  3 -  4) =      3.31872  eV     2   --> E    G_5 D_5   
     e(  5 -  5) =      6.68164  eV     1   --> A_1  G_1 D_1   
     e(  6 -  6) =      6.91792  eV     1   --> B_2  G_4 D_2'  
     e(  7 -  8) =     15.94230  eV     2   --> E    G_5 D_5   

 **************************************************************************

 **************************************************************************

                    xk=(   0.96667,   0.00000,   0.00000  )

     Band symmetry, C_4v (4mm)  point group:

     e(  1 -  1) =     -1.93718  eV     1   --> A_1  G_1 D_1   
     e(  2 -  2) =     -1.41425  eV     1   --> B_2  G_4 D_2'  
     e(  3 -  4) =      3.30539  eV     2   --> E    G_5 D_5   
     e(  5 -  5) =      6.72074  eV     1   --> A_1  G_1 D_1   
     e(  6 -  6) =      6.83862  eV     1   --> B_2  G_4 D_2'  
     e(  7 -  8) =     16.19145  eV     2   --> E    G_5 D_5   

 **************************************************************************

 **************************************************************************

                    xk=(   1.00000,   0.00000,   0.00000  )

     zone border point and non-symmorphic group 
     symmetry decomposition not available

 **************************************************************************

 **************************************************************************

                    xk=(   1.00000,   0.02500,   0.02500  )

     zone border point and non-symmorphic group 
     symmetry decomposition not available

 **************************************************************************

 **************************************************************************

                    xk=(   1.00000,   0.05000,   0.05000  )

     zone border point and non-symmorphic group 
     symmetry decomposition not available

 **************************************************************************

 **************************************************************************

                    xk=(   1.00000,   0.07500,   0.07500  )

     zone border point and non-symmorphic group 
     symmetry decomposition not available

 **************************************************************************

 **************************************************************************

                    xk=(   1.00000,   0.10000,   0.10000  )

     zone border point and non-symmorphic group 
     symmetry decomposition not available

 **************************************************************************

 **************************************************************************

                    xk=(   1.00000,   0.12500,   0.12500  )

     zone border point and non-symmorphic group 
     symmetry decomposition not available

 **************************************************************************

 **************************************************************************

                    xk=(   1.00000,   0.15000,   0.15000  )

     zone border point and non-symmorphic group 
     symmetry decomposition not available

 **************************************************************************

 **************************************************************************

                    xk=(   1.00000,   0.17500,   0.17500  )

     zone border point and non-symmorphic group 
     symmetry decomposition not available

 **************************************************************************

 **************************************************************************

                    xk=(   1.00000,   0.20000,   0.20000  )

     zone border point and non-symmorphic group 
     symmetry decomposition not available

 **************************************************************************

 **************************************************************************

                    xk=(   1.00000,   0.22500,   0.22500  )

     zone border point and non-symmorphic group 
     symmetry decomposition not available

 **************************************************************************

 **************************************************************************

                    xk=(   1.00000,   0.25000,   0.25000  )

     zone border point and non-symmorphic group 
     symmetry decomposition not available

 **************************************************************************

 **************************************************************************

                    xk=(   0.96667,   0.24167,   0.24167  )

     point group C_s (m)    
     there are  2 classes
     the character table:

       E     s    
A'     1.00  1.00
A''    1.00 -1.00

     the symmetry operations in each class and the name of the first element:

     E        1
                                                                 
     s        2
                                                                 

     Band symmetry, C_s (m)     point group:

     e(  1 -  1) =     -2.09084  eV     1   --> A'             
     e(  2 -  2) =     -1.08561  eV     1   --> A'             
     e(  3 -  3) =      1.83450  eV     1   --> A'             
     e(  4 -  4) =      3.71177  eV     1   --> A''            
     e(  5 -  5) =      7.25349  eV     1   --> A'             
     e(  6 -  6) =     10.09327  eV     1   --> A'             
     e(  7 -  7) =     13.69213  eV     1   --> A''            
     e(  8 -  8) =     14.05686  eV     1   --> A'             

 **************************************************************************

 **************************************************************************

                    xk=(   0.93333,   0.23333,   0.23333  )

     Band symmetry, C_s (m)     point group:

     e(  1 -  1) =     -2.17919  eV     1   --> A'             
     e(  2 -  2) =     -1.00773  eV     1   --> A'             
     e(  3 -  3) =      1.91039  eV     1   --> A'             
     e(  4 -  4) =      3.69720  eV     1   --> A''            
     e(  5 -  5) =      7.23996  eV     1   --> A'             
     e(  6 -  6) =      9.94394  eV     1   --> A'             
     e(  7 -  7) =     13.60475  eV     1   --> A''            
     e(  8 -  8) =     13.84099  eV     1   --> A'             

 **************************************************************************

 **************************************************************************

                    xk=(   0.90000,   0.22500,   0.22500  )

     Band symmetry, C_s (m)     point group:

     e(  1 -  1) =     -2.32855  eV     1   --> A'             
     e(  2 -  2) =     -0.86914  eV     1   --> A'             
     e(  3 -  3) =      2.01113  eV     1   --> A'             
     e(  4 -  4) =      3.69184  eV     1   --> A''            
     e(  5 -  5) =      7.23913  eV     1   --> A'             
     e(  6 -  6) =      9.80873  eV     1   --> A'             
     e(  7 -  7) =     13.47087  eV     1   --> A''            
     e(  8 -  8) =     13.61959  eV     1   --> A'             

 **************************************************************************

 **************************************************************************

                    xk=(   0.86667,   0.21667,   0.21667  )

     Band symmetry, C_s (m)     point group:

     e(  1 -  1) =     -2.51241  eV     1   --> A'             
     e(  2 -  2) =     -0.69272  eV     1   --> A'             
     e(  3 -  3) =      2.13277  eV     1   --> A'             
     e(  4 -  4) =      3.69580  eV     1   --> A''            
     e(  5 -  5) =      7.25061  eV     1   --> A'             
     e(  6 -  6) =      9.68860  eV     1   --> A'             
     e(  7 -  7) =     13.32035  eV     1   --> A''            
     e(  8 -  8) =     13.39777  eV     1   --> A'             

 **************************************************************************

 **************************************************************************

                    xk=(   0.83333,   0.20833,   0.20833  )

     Band symmetry, C_s (m)     point group:

     e(  1 -  1) =     -2.71391  eV     1   --> A'             
     e(  2 -  2) =     -0.49245  eV     1   --> A'             
     e(  3 -  3) =      2.27197  eV     1   --> A'             
     e(  4 -  4) =      3.70918  eV     1   --> A''            
     e(  5 -  5) =      7.27379  eV     1   --> A'             
     e(  6 -  6) =      9.58464  eV     1   --> A'             
     e(  7 -  7) =     13.16455  eV     1   --> A''            
     e(  8 -  8) =     13.17674  eV     1   --> A'             

 **************************************************************************

 **************************************************************************

                    xk=(   0.80000,   0.20000,   0.20000  )

     Band symmetry, C_s (m)     point group:

     e(  1 -  1) =     -2.92348  eV     1   --> A'             
     e(  2 -  2) =     -0.27558  eV     1   --> A'             
     e(  3 -  3) =      2.42589  eV     1   --> A'             
     e(  4 -  4) =      3.73203  eV     1   --> A''            
     e(  5 -  5) =      7.30781  eV     1   --> A'             
     e(  6 -  6) =      9.49813  eV     1   --> A'             
     e(  7 -  7) =     12.95700  eV     1   --> A'             
     e(  8 -  8) =     13.00785  eV     1   --> A''            

 **************************************************************************

 **************************************************************************

                    xk=(   0.76667,   0.19167,   0.19167  )

     Band symmetry, C_s (m)     point group:

     e(  1 -  1) =     -3.13552  eV     1   --> A'             
     e(  2 -  2) =     -0.04595  eV     1   --> A'             
     e(  3 -  3) =      2.59213  eV     1   --> A'             
     e(  4 -  4) =      3.76438  eV     1   --> A''            
     e(  5 -  5) =      7.35150  eV     1   --> A'             
     e(  6 -  6) =      9.43062  eV     1   --> A'             
     e(  7 -  7) =     12.73879  eV     1   --> A'             
     e(  8 -  8) =     12.85182  eV     1   --> A''            

 **************************************************************************

 **************************************************************************

                    xk=(   0.73333,   0.18333,   0.18333  )

     Band symmetry, C_s (m)     point group:

     e(  1 -  1) =     -3.34653  eV     1   --> A'             
     e(  2 -  2) =      0.19434  eV     1   --> A'             
     e(  3 -  3) =      2.76856  eV     1   --> A'             
     e(  4 -  4) =      3.80625  eV     1   --> A''            
     e(  5 -  5) =      7.40332  eV     1   --> A'             
     e(  6 -  6) =      9.38387  eV     1   --> A'             
     e(  7 -  7) =     12.52226  eV     1   --> A'             
     e(  8 -  8) =     12.69666  eV     1   --> A''            

 **************************************************************************

 **************************************************************************

                    xk=(   0.70000,   0.17500,   0.17500  )

     Band symmetry, C_s (m)     point group:

     e(  1 -  1) =     -3.55414  eV     1   --> A'             
     e(  2 -  2) =      0.44402  eV     1   --> A'             
     e(  3 -  3) =      2.95331  eV     1   --> A'             
     e(  4 -  4) =      3.85760  eV     1   --> A''            
     e(  5 -  5) =      7.46143  eV     1   --> A'             
     e(  6 -  6) =      9.35990  eV     1   --> A'             
     e(  7 -  7) =     12.30759  eV     1   --> A'             
     e(  8 -  8) =     12.54180  eV     1   --> A''            

 **************************************************************************

 **************************************************************************

                    xk=(   0.66667,   0.16667,   0.16667  )

     Band symmetry, C_s (m)     point group:

     e(  1 -  1) =     -3.75670  eV     1   --> A'             
     e(  2 -  2) =      0.70229  eV     1   --> A'             
     e(  3 -  3) =      3.14467  eV     1   --> A'             
     e(  4 -  4) =      3.91839  eV     1   --> A''            
     e(  5 -  5) =      7.52371  eV     1   --> A'             
     e(  6 -  6) =      9.36078  eV     1   --> A'             
     e(  7 -  7) =     12.09500  eV     1   --> A'             
     e(  8 -  8) =     12.38615  eV     1   --> A''            

 **************************************************************************

 **************************************************************************

                    xk=(   0.63333,   0.15833,   0.15833  )

     Band symmetry, C_s (m)     point group:

     e(  1 -  1) =     -3.95298  eV     1   --> A'             
     e(  2 -  2) =      0.96861  eV     1   --> A'             
     e(  3 -  3) =      3.34103  eV     1   --> A'             
     e(  4 -  4) =      3.98855  eV     1   --> A''            
     e(  5 -  5) =      7.58801  eV     1   --> A'             
     e(  6 -  6) =      9.38839  eV     1   --> A'             
     e(  7 -  7) =     11.88483  eV     1   --> A'             
     e(  8 -  8) =     12.22823  eV     1   --> A''            

 **************************************************************************

 **************************************************************************

                    xk=(   0.60000,   0.15000,   0.15000  )

     Band symmetry, C_s (m)     point group:

     e(  1 -  1) =     -4.14207  eV     1   --> A'             
     e(  2 -  2) =      1.24254  eV     1   --> A'             
     e(  3 -  3) =      3.54093  eV     1   --> A'             
     e(  4 -  4) =      4.06796  eV     1   --> A''            
     e(  5 -  5) =      7.65240  eV     1   --> A'             
     e(  6 -  6) =      9.44398  eV     1   --> A'             
     e(  7 -  7) =     11.67764  eV     1   --> A'             
     e(  8 -  8) =     12.06631  eV     1   --> A''            

 **************************************************************************

 **************************************************************************

                    xk=(   0.56667,   0.14167,   0.14167  )

     Band symmetry, C_s (m)     point group:

     e(  1 -  1) =     -4.32323  eV     1   --> A'             
     e(  2 -  2) =      1.52374  eV     1   --> A'             
     e(  3 -  3) =      3.74298  eV     1   --> A'             
     e(  4 -  4) =      4.15648  eV     1   --> A''            
     e(  5 -  5) =      7.71556  eV     1   --> A'             
     e(  6 -  6) =      9.52763  eV     1   --> A'             
     e(  7 -  7) =     11.47432  eV     1   --> A'             
     e(  8 -  8) =     11.89850  eV     1   --> A''            

 **************************************************************************

 **************************************************************************

                    xk=(   0.53333,   0.13333,   0.13333  )

     Band symmetry, C_s (m)     point group:

     e(  1 -  1) =     -4.49591  eV     1   --> A'             
     e(  2 -  2) =      1.81189  eV     1   --> A'             
     e(  3 -  3) =      3.94587  eV     1   --> A'             
     e(  4 -  4) =      4.25392  eV     1   --> A''            
     e(  5 -  5) =      7.77694  eV     1   --> A'             
     e(  6 -  6) =      9.63757  eV     1   --> A'             
     e(  7 -  7) =     11.27646  eV     1   --> A'             
     e(  8 -  8) =     11.72295  eV     1   --> A''            

 **************************************************************************

 **************************************************************************

                    xk=(   0.50000,   0.12500,   0.12500  )

     Band symmetry, C_s (m)     point group:

     e(  1 -  1) =     -4.65962  eV     1   --> A'             
     e(  2 -  2) =      2.10664  eV     1   --> A'             
     e(  3 -  3) =      4.14834  eV     1   --> A'             
     e(  4 -  4) =      4.36004  eV     1   --> A''            
     e(  5 -  5) =      7.83684  eV     1   --> A'             
     e(  6 -  6) =      9.76914  eV     1   --> A'             
     e(  7 -  7) =     11.08714  eV     1   --> A'             
     e(  8 -  8) =     11.53809  eV     1   --> A''            

 **************************************************************************

 **************************************************************************

                    xk=(   0.46667,   0.11667,   0.11667  )

     Band symmetry, C_s (m)     point group:

     e(  1 -  1) =     -4.81400  eV     1   --> A'             
     e(  2 -  2) =      2.40760  eV     1   --> A'             
     e(  3 -  3) =      4.34920  eV     1   --> A'             
     e(  4 -  4) =      4.47454  eV     1   --> A''            
     e(  5 -  5) =      7.89619  eV     1   --> A'             
     e(  6 -  6) =      9.91233  eV     1   --> A'             
     e(  7 -  7) =     10.91327  eV     1   --> A'             
     e(  8 -  8) =     11.34283  eV     1   --> A''            

 **************************************************************************

 **************************************************************************

                    xk=(   0.43333,   0.10833,   0.10833  )

     Band symmetry, C_s (m)     point group:

     e(  1 -  1) =     -4.95874  eV     1   --> A'             
     e(  2 -  2) =      2.71433  eV     1   --> A'             
     e(  3 -  3) =      4.54728  eV     1   --> A'             
     e(  4 -  4) =      4.59703  eV     1   --> A''            
     e(  5 -  5) =      7.95621  eV     1   --> A'             
     e(  6 -  6) =     10.04397  eV     1   --> A'             
     e(  7 -  7) =     10.77315  eV     1   --> A'             
     e(  8 -  8) =     11.13684  eV     1   --> A''            

 **************************************************************************

 **************************************************************************

                    xk=(   0.40000,   0.10000,   0.10000  )

     Band symmetry, C_s (m)     point group:

     e(  1 -  1) =     -5.09355  eV     1   --> A'             
     e(  2 -  2) =      3.02625  eV     1   --> A'             
     e(  3 -  3) =      4.72701  eV     1   --> A''            
     e(  4 -  4) =      4.74142  eV     1   --> A'             
     e(  5 -  5) =      8.01813  eV     1   --> A'             
     e(  6 -  6) =     10.11110  eV     1   --> A'             
     e(  7 -  7) =     10.71222  eV     1   --> A'             
     e(  8 -  8) =     10.92063  eV     1   --> A''            

 **************************************************************************

 **************************************************************************

                    xk=(   0.36667,   0.09167,   0.09167  )

     Band symmetry, C_s (m)     point group:

     e(  1 -  1) =     -5.21823  eV     1   --> A'             
     e(  2 -  2) =      3.34266  eV     1   --> A'             
     e(  3 -  3) =      4.86386  eV     1   --> A''            
     e(  4 -  4) =      4.93042  eV     1   --> A'             
     e(  5 -  5) =      8.08293  eV     1   --> A'             
     e(  6 -  6) =     10.06443  eV     1   --> A'             
     e(  7 -  7) =     10.69564  eV     1   --> A''            
     e(  8 -  8) =     10.76756  eV     1   --> A'             

 **************************************************************************

 **************************************************************************

                    xk=(   0.33333,   0.08333,   0.08333  )

     Band symmetry, C_s (m)     point group:

     e(  1 -  1) =     -5.33259  eV     1   --> A'             
     e(  2 -  2) =      3.66260  eV     1   --> A'             
     e(  3 -  3) =      5.00676  eV     1   --> A''            
     e(  4 -  4) =      5.11306  eV     1   --> A'             
     e(  5 -  5) =      8.15120  eV     1   --> A'             
     e(  6 -  6) =      9.94238  eV     1   --> A'             
     e(  7 -  7) =     10.46407  eV     1   --> A''            
     e(  8 -  8) =     10.87944  eV     1   --> A'             

 **************************************************************************

 **************************************************************************

                    xk=(   0.30000,   0.07500,   0.07500  )

     Band symmetry, C_s (m)     point group:

     e(  1 -  1) =     -5.43647  eV     1   --> A'             
     e(  2 -  2) =      3.98483  eV     1   --> A'             
     e(  3 -  3) =      5.15464  eV     1   --> A''            
     e(  4 -  4) =      5.28799  eV     1   --> A'             
     e(  5 -  5) =      8.22300  eV     1   --> A'             
     e(  6 -  6) =      9.79393  eV     1   --> A'             
     e(  7 -  7) =     10.22879  eV     1   --> A''            
     e(  8 -  8) =     10.96263  eV     1   --> A'             

 **************************************************************************

 **************************************************************************

                    xk=(   0.26667,   0.06667,   0.06667  )

     Band symmetry, C_s (m)     point group:

     e(  1 -  1) =     -5.52973  eV     1   --> A'             
     e(  2 -  2) =      4.30765  eV     1   --> A'             
     e(  3 -  3) =      5.30606  eV     1   --> A''            
     e(  4 -  4) =      5.45376  eV     1   --> A'             
     e(  5 -  5) =      8.29777  eV     1   --> A'             
     e(  6 -  6) =      9.63926  eV     1   --> A'             
     e(  7 -  7) =      9.99318  eV     1   --> A''            
     e(  8 -  8) =     10.95149  eV     1   --> A'             

 **************************************************************************

 **************************************************************************

                    xk=(   0.23333,   0.05833,   0.05833  )

     Band symmetry, C_s (m)     point group:

     e(  1 -  1) =     -5.61226  eV     1   --> A'             
     e(  2 -  2) =      4.62866  eV     1   --> A'             
     e(  3 -  3) =      5.45910  eV     1   --> A''            
     e(  4 -  4) =      5.60869  eV     1   --> A'             
     e(  5 -  5) =      8.37431  eV     1   --> A'             
     e(  6 -  6) =      9.48613  eV     1   --> A'             
     e(  7 -  7) =      9.76113  eV     1   --> A''            
     e(  8 -  8) =     10.82204  eV     1   --> A'             

 **************************************************************************

 **************************************************************************

                    xk=(   0.20000,   0.05000,   0.05000  )

     Band symmetry, C_s (m)     point group:

     e(  1 -  1) =     -5.68396  eV     1   --> A'             
     e(  2 -  2) =      4.94444  eV     1   --> A'             
     e(  3 -  3) =      5.61111  eV     1   --> A''            
     e(  4 -  4) =      5.75088  eV     1   --> A'             
     e(  5 -  5) =      8.45071  eV     1   --> A'             
     e(  6 -  6) =      9.33813  eV     1   --> A'             
     e(  7 -  7) =      9.53706  eV     1   --> A''            
     e(  8 -  8) =     10.60650  eV     1   --> A'             

 **************************************************************************

 **************************************************************************

                    xk=(   0.16667,   0.04167,   0.04167  )

     Band symmetry, C_s (m)     point group:

     e(  1 -  1) =     -5.74476  eV     1   --> A'             
     e(  2 -  2) =      5.24991  eV     1   --> A'             
     e(  3 -  3) =      5.75845  eV     1   --> A''            
     e(  4 -  4) =      5.87815  eV     1   --> A'             
     e(  5 -  5) =      8.52432  eV     1   --> A'             
     e(  6 -  6) =      9.19721  eV     1   --> A'             
     e(  7 -  7) =      9.32618  eV     1   --> A''            
     e(  8 -  8) =     10.35340  eV     1   --> A'             

 **************************************************************************

 **************************************************************************

                    xk=(   0.13333,   0.03333,   0.03333  )

     Band symmetry, C_s (m)     point group:

     e(  1 -  1) =     -5.79459  eV     1   --> A'             
     e(  2 -  2) =      5.53745  eV     1   --> A'             
     e(  3 -  3) =      5.89615  eV     1   --> A''            
     e(  4 -  4) =      5.98800  eV     1   --> A'             
     e(  5 -  5) =      8.59192  eV     1   --> A'             
     e(  6 -  6) =      9.06469  eV     1   --> A'             
     e(  7 -  7) =      9.13478  eV     1   --> A''            
     e(  8 -  8) =     10.10025  eV     1   --> A'             

 **************************************************************************

 **************************************************************************

                    xk=(   0.10000,   0.02500,   0.02500  )

     Band symmetry, C_s (m)     point group:

     e(  1 -  1) =     -5.83339  eV     1   --> A'             
     e(  2 -  2) =      5.79544  eV     1   --> A'             
     e(  3 -  3) =      6.01756  eV     1   --> A''            
     e(  4 -  4) =      6.07769  eV     1   --> A'             
     e(  5 -  5) =      8.64984  eV     1   --> A'             
     e(  6 -  6) =      8.94261  eV     1   --> A'             
     e(  7 -  7) =      8.97056  eV     1   --> A''            
     e(  8 -  8) =      9.87471  eV     1   --> A'             

 **************************************************************************

 **************************************************************************

                    xk=(   0.06667,   0.01667,   0.01667  )

     Band symmetry, C_s (m)     point group:

     e(  1 -  1) =     -5.86114  eV     1   --> A'             
     e(  2 -  2) =      6.00677  eV     1   --> A'             
     e(  3 -  3) =      6.11438  eV     1   --> A''            
     e(  4 -  4) =      6.14442  eV     1   --> A'             
     e(  5 -  5) =      8.69441  eV     1   --> A'             
     e(  6 -  6) =      8.83677  eV     1   --> A'             
     e(  7 -  7) =      8.84261  eV     1   --> A''            
     e(  8 -  8) =      9.69879  eV     1   --> A'             

 **************************************************************************

 **************************************************************************

                    xk=(   0.03333,   0.00833,   0.00833  )

     Band symmetry, C_s (m)     point group:

     e(  1 -  1) =     -5.87780  eV     1   --> A'             
     e(  2 -  2) =      6.14893  eV     1   --> A'             
     e(  3 -  3) =      6.17757  eV     1   --> A''            
     e(  4 -  4) =      6.18566  eV     1   --> A'             
     e(  5 -  5) =      8.72252  eV     1   --> A'             
     e(  6 -  7) =      8.76052  eV     2   --> A'             
     e(  6 -  7) =      8.76052  eV     2   --> A''            
     e(  8 -  8) =      9.58820  eV     1   --> A'             

 **************************************************************************

 **************************************************************************

                    xk=(   0.00000,   0.00000,   0.00000  )

     point group O_h (m-3m) 
     there are 10 classes
     the character table:

       E     8C3   3C2   6C4   6C2'  i     8S6   3s_h  6S4   6s_d 
A_1g   1.00  1.00  1.00  1.00  1.00  1.00  1.00  1.00  1.00  1.00
A_2g   1.00  1.00  1.00 -1.00 -1.00  1.00  1.00  1.00 -1.00 -1.00
E_g    2.00 -1.00  2.00  0.00  0.00  2.00 -1.00  2.00  0.00  0.00
T_1g   3.00  0.00 -1.00  1.00 -1.00  3.00  0.00 -1.00  1.00 -1.00
T_2g   3.00  0.00 -1.00 -1.00  1.00  3.00  0.00 -1.00 -1.00  1.00
A_1u   1.00  1.00  1.00  1.00  1.00 -1.00 -1.00 -1.00 -1.00 -1.00
A_2u   1.00  1.00  1.00 -1.00 -1.00 -1.00 -1.00 -1.00  1.00  1.00
E_u    2.00 -1.00  2.00  0.00  0.00 -2.00  1.00 -2.00  0.00  0.00
T_1u   3.00  0.00 -1.00  1.00 -1.00 -3.00  0.00  1.00 -1.00  1.00
T_2u   3.00  0.00 -1.00 -1.00  1.00 -3.00  0.00  1.00  1.00 -1.00

     the symmetry operations in each class and the name of the first element:

     E        1
                                                                 
     8C3     17   19   20   18   24   21   22   23
                                                                 
     3C2      2    4    3
                                                                 
     6C4      7    8   15   16   12   11
                                                                 
     6C2'     5    6   14   13   10    9
                                                                 
     i       25
                                                                 
     8S6     41   43   44   42   48   45   46   47
                                                                 
     3s_h    26   28   27
                                                                 
     6S4     31   32   39   40   36   35
                                                                 
     6s_d    29   30   38   37   34   33
                                                                 

     Band symmetry, O_h (m-3m)  point group:

     e(  1 -  1) =     -5.88336  eV     1   --> A_1g G_1   G_1+
     e(  2 -  4) =      6.19963  eV     3   --> T_2g G_25' G_5+
     e(  5 -  7) =      8.73213  eV     3   --> T_1u G_15  G_4-
     e(  8 -  8) =      9.55070  eV     1   --> A_2u G_2'  G_2-

 **************************************************************************

     BANDS        :   1m34.79s CPU   1m25.28s WALL


   This run was terminated on:  15:30:32  17Nov2025            

=------------------------------------------------------------------------------=
   JOB DONE.
=------------------------------------------------------------------------------=
