
     Program PWSCF v.7.4 starts on 17Nov2025 at 15:15:49 

     This program is part of the open-source Quantum ESPRESSO suite
     for quantum simulation of materials; please cite
         "P. Giannozzi et al., J. Phys.:Condens. Matter 21 395502 (2009);
         "P. Giannozzi et al., J. Phys.:Condens. Matter 29 465901 (2017);
         "P. Giannozzi et al., J. Chem. Phys. 152 154105 (2020);
          URL http://www.quantum-espresso.org", 
     in publications or presentations arising from this work. More details at
     http://www.quantum-espresso.org/quote

     Parallel version (MPI & OpenMP), running on       6 processor cores
     Number of MPI processes:                 3
     Threads/MPI process:                     2

     MPI processes distributed on     1 nodes
     27167 MiB available memory on the printing compute node when the environment starts

     Waiting for input...
     Reading input from standard input

     Current dimensions of program PWSCF are:
     Max number of different atomic species (ntypx) = 10
     Max number of k-points (npk) =  40000
     Max angular momentum in pseudopotentials (lmaxx) =  4
     file Si.pz-vbc.UPF: wavefunction(s)  3S renormalized

     Atomic positions and unit cell read from directory:
     ./tmp/silicon.save/


     R & G space division:  proc/nbgrp/npool/nimage =       3
     Subspace diagonalization in iterative solution of the eigenvalue problem:
     a serial algorithm will be used


     Parallelization info
     --------------------
     sticks:   dense  smooth     PW     G-vecs:    dense   smooth      PW
     Min         472     240     70                11914     4208     694
     Max         473     241     71                11919     4210     696
     Sum        1417     721    211                35749    12627    2085

     Using Slab Decomposition



     bravais-lattice index     =            2
     lattice parameter (alat)  =      10.2076  a.u.
     unit-cell volume          =     265.8955 (a.u.)^3
     number of atoms/cell      =            2
     number of atomic types    =            1
     number of electrons       =         8.00
     number of Kohn-Sham states=            8
     kinetic-energy cutoff     =      50.0000  Ry
     charge density cutoff     =     400.0000  Ry
     Exchange-correlation= SLA  PZ   NOGX NOGC
                           (   1   1   0   0   0   0   0)

     celldm(1)=  10.207600  celldm(2)=   0.000000  celldm(3)=   0.000000
     celldm(4)=   0.000000  celldm(5)=   0.000000  celldm(6)=   0.000000

     crystal axes: (cart. coord. in units of alat)
               a(1) = (  -0.500000   0.000000   0.500000 )  
               a(2) = (   0.000000   0.500000   0.500000 )  
               a(3) = (  -0.500000   0.500000   0.000000 )  

     reciprocal axes: (cart. coord. in units 2 pi/alat)
               b(1) = ( -1.000000 -1.000000  1.000000 )  
               b(2) = (  1.000000  1.000000  1.000000 )  
               b(3) = ( -1.000000  1.000000 -1.000000 )  


     PseudoPot. # 1 for Si read from file:
     ./Si.pz-vbc.UPF
     MD5 check sum: 0f64179521154464f50d54a56d9f4e6d
     Pseudo is Projector augmented-wave + core cor, Zval =  4.0
     Generated using "atomic" code by A. Dal Corso  v.5.0.2 svn rev. 9415
     Shape of augmentation charge: PSQ
     Using radial grid of 1141 points,  4 beta functions with: 
                l(1) =   0
                l(2) =   0
                l(3) =   1
                l(4) =   1
     Q(r) pseudized with 0 coefficients 


     atomic species   valence    mass     pseudopotential
     Si                4.00    28.08600     Si( 1.00)

     48 Sym. Ops., with inversion, found (24 have fractional translation)


                                    s                        frac. trans.

      isym =  1     identity                                     

 cryst.   s( 1) = (     1          0          0      )
                  (     0          1          0      )
                  (     0          0          1      )

 cart.    s( 1) = (  1.0000000  0.0000000  0.0000000 )
                  (  0.0000000  1.0000000  0.0000000 )
                  (  0.0000000  0.0000000  1.0000000 )


      isym =  2     180 deg rotation - cart. axis [0,0,1]        

 cryst.   s( 2) = (     0          1         -1      )
                  (     1          0         -1      )
                  (     0          0         -1      )

 cart.    s( 2) = ( -1.0000000  0.0000000  0.0000000 )
                  (  0.0000000 -1.0000000  0.0000000 )
                  (  0.0000000  0.0000000  1.0000000 )


      isym =  3     180 deg rotation - cart. axis [0,1,0]        

 cryst.   s( 3) = (    -1          0          0      )
                  (    -1          0          1      )
                  (    -1          1          0      )

 cart.    s( 3) = ( -1.0000000  0.0000000  0.0000000 )
                  (  0.0000000  1.0000000  0.0000000 )
                  (  0.0000000  0.0000000 -1.0000000 )


      isym =  4     180 deg rotation - cart. axis [1,0,0]        

 cryst.   s( 4) = (     0         -1          1      )
                  (     0         -1          0      )
                  (     1         -1          0      )

 cart.    s( 4) = (  1.0000000  0.0000000  0.0000000 )
                  (  0.0000000 -1.0000000  0.0000000 )
                  (  0.0000000  0.0000000 -1.0000000 )


      isym =  5     180 deg rotation - cart. axis [1,1,0]        

 cryst.   s( 5) = (     0         -1          0      )    f =(  0.2500000 )
                  (    -1          0          0      )       (  0.2500000 )
                  (     0          0         -1      )       (  0.2500000 )

 cart.    s( 5) = (  0.0000000  1.0000000  0.0000000 )    f =( -0.2500000 )
                  (  1.0000000  0.0000000  0.0000000 )       (  0.2500000 )
                  (  0.0000000  0.0000000 -1.0000000 )       (  0.2500000 )


      isym =  6     180 deg rotation - cart. axis [1,-1,0]       

 cryst.   s( 6) = (    -1          0          1      )    f =(  0.2500000 )
                  (     0         -1          1      )       (  0.2500000 )
                  (     0          0          1      )       (  0.2500000 )

 cart.    s( 6) = (  0.0000000 -1.0000000  0.0000000 )    f =( -0.2500000 )
                  ( -1.0000000  0.0000000  0.0000000 )       (  0.2500000 )
                  (  0.0000000  0.0000000 -1.0000000 )       (  0.2500000 )


      isym =  7      90 deg rotation - cart. axis [0,0,-1]       

 cryst.   s( 7) = (     0          1          0      )    f =(  0.2500000 )
                  (     0          1         -1      )       (  0.2500000 )
                  (    -1          1          0      )       (  0.2500000 )

 cart.    s( 7) = (  0.0000000  1.0000000  0.0000000 )    f =( -0.2500000 )
                  ( -1.0000000  0.0000000  0.0000000 )       (  0.2500000 )
                  (  0.0000000  0.0000000  1.0000000 )       (  0.2500000 )


      isym =  8      90 deg rotation - cart. axis [0,0,1]        

 cryst.   s( 8) = (     1          0         -1      )    f =(  0.2500000 )
                  (     1          0          0      )       (  0.2500000 )
                  (     1         -1          0      )       (  0.2500000 )

 cart.    s( 8) = (  0.0000000 -1.0000000  0.0000000 )    f =( -0.2500000 )
                  (  1.0000000  0.0000000  0.0000000 )       (  0.2500000 )
                  (  0.0000000  0.0000000  1.0000000 )       (  0.2500000 )


      isym =  9     180 deg rotation - cart. axis [1,0,1]        

 cryst.   s( 9) = (    -1          0          0      )    f =(  0.2500000 )
                  (     0          0         -1      )       (  0.2500000 )
                  (     0         -1          0      )       (  0.2500000 )

 cart.    s( 9) = (  0.0000000  0.0000000  1.0000000 )    f =( -0.2500000 )
                  (  0.0000000 -1.0000000  0.0000000 )       (  0.2500000 )
                  (  1.0000000  0.0000000  0.0000000 )       (  0.2500000 )


      isym = 10     180 deg rotation - cart. axis [-1,0,1]       

 cryst.   s(10) = (     1          0          0      )    f =(  0.2500000 )
                  (     1         -1          0      )       (  0.2500000 )
                  (     1          0         -1      )       (  0.2500000 )

 cart.    s(10) = (  0.0000000  0.0000000 -1.0000000 )    f =( -0.2500000 )
                  (  0.0000000 -1.0000000  0.0000000 )       (  0.2500000 )
                  ( -1.0000000  0.0000000  0.0000000 )       (  0.2500000 )


      isym = 11      90 deg rotation - cart. axis [0,1,0]        

 cryst.   s(11) = (     0          1         -1      )    f =(  0.2500000 )
                  (    -1          1          0      )       (  0.2500000 )
                  (     0          1          0      )       (  0.2500000 )

 cart.    s(11) = (  0.0000000  0.0000000  1.0000000 )    f =( -0.2500000 )
                  (  0.0000000  1.0000000  0.0000000 )       (  0.2500000 )
                  ( -1.0000000  0.0000000  0.0000000 )       (  0.2500000 )


      isym = 12      90 deg rotation - cart. axis [0,-1,0]       

 cryst.   s(12) = (     0         -1          1      )    f =(  0.2500000 )
                  (     0          0          1      )       (  0.2500000 )
                  (    -1          0          1      )       (  0.2500000 )

 cart.    s(12) = (  0.0000000  0.0000000 -1.0000000 )    f =( -0.2500000 )
                  (  0.0000000  1.0000000  0.0000000 )       (  0.2500000 )
                  (  1.0000000  0.0000000  0.0000000 )       (  0.2500000 )


      isym = 13     180 deg rotation - cart. axis [0,1,1]        

 cryst.   s(13) = (    -1          1          0      )    f =(  0.2500000 )
                  (     0          1          0      )       (  0.2500000 )
                  (     0          1         -1      )       (  0.2500000 )

 cart.    s(13) = ( -1.0000000  0.0000000  0.0000000 )    f =( -0.2500000 )
                  (  0.0000000  0.0000000  1.0000000 )       (  0.2500000 )
                  (  0.0000000  1.0000000  0.0000000 )       (  0.2500000 )


      isym = 14     180 deg rotation - cart. axis [0,1,-1]       

 cryst.   s(14) = (     0          0         -1      )    f =(  0.2500000 )
                  (     0         -1          0      )       (  0.2500000 )
                  (    -1          0          0      )       (  0.2500000 )

 cart.    s(14) = ( -1.0000000  0.0000000  0.0000000 )    f =( -0.2500000 )
                  (  0.0000000  0.0000000 -1.0000000 )       (  0.2500000 )
                  (  0.0000000 -1.0000000  0.0000000 )       (  0.2500000 )


      isym = 15      90 deg rotation - cart. axis [-1,0,0]       

 cryst.   s(15) = (     0          0          1      )    f =(  0.2500000 )
                  (    -1          0          1      )       (  0.2500000 )
                  (     0         -1          1      )       (  0.2500000 )

 cart.    s(15) = (  1.0000000  0.0000000  0.0000000 )    f =( -0.2500000 )
                  (  0.0000000  0.0000000  1.0000000 )       (  0.2500000 )
                  (  0.0000000 -1.0000000  0.0000000 )       (  0.2500000 )


      isym = 16      90 deg rotation - cart. axis [1,0,0]        

 cryst.   s(16) = (     1         -1          0      )    f =(  0.2500000 )
                  (     1          0         -1      )       (  0.2500000 )
                  (     1          0          0      )       (  0.2500000 )

 cart.    s(16) = (  1.0000000  0.0000000  0.0000000 )    f =( -0.2500000 )
                  (  0.0000000  0.0000000 -1.0000000 )       (  0.2500000 )
                  (  0.0000000  1.0000000  0.0000000 )       (  0.2500000 )


      isym = 17     120 deg rotation - cart. axis [-1,-1,-1]     

 cryst.   s(17) = (    -1          0          1      )
                  (    -1          1          0      )
                  (    -1          0          0      )

 cart.    s(17) = (  0.0000000  1.0000000  0.0000000 )
                  (  0.0000000  0.0000000  1.0000000 )
                  (  1.0000000  0.0000000  0.0000000 )


      isym = 18     120 deg rotation - cart. axis [-1,1,1]       

 cryst.   s(18) = (     0          1          0      )
                  (     0          0          1      )
                  (     1          0          0      )

 cart.    s(18) = (  0.0000000 -1.0000000  0.0000000 )
                  (  0.0000000  0.0000000  1.0000000 )
                  ( -1.0000000  0.0000000  0.0000000 )


      isym = 19     120 deg rotation - cart. axis [1,1,-1]       

 cryst.   s(19) = (     1          0         -1      )
                  (     0          0         -1      )
                  (     0          1         -1      )

 cart.    s(19) = (  0.0000000  1.0000000  0.0000000 )
                  (  0.0000000  0.0000000 -1.0000000 )
                  ( -1.0000000  0.0000000  0.0000000 )


      isym = 20     120 deg rotation - cart. axis [1,-1,1]       

 cryst.   s(20) = (     0         -1          0      )
                  (     1         -1          0      )
                  (     0         -1          1      )

 cart.    s(20) = (  0.0000000 -1.0000000  0.0000000 )
                  (  0.0000000  0.0000000 -1.0000000 )
                  (  1.0000000  0.0000000  0.0000000 )


      isym = 21     120 deg rotation - cart. axis [1,1,1]        

 cryst.   s(21) = (     0          0         -1      )
                  (     0          1         -1      )
                  (     1          0         -1      )

 cart.    s(21) = (  0.0000000  0.0000000  1.0000000 )
                  (  1.0000000  0.0000000  0.0000000 )
                  (  0.0000000  1.0000000  0.0000000 )


      isym = 22     120 deg rotation - cart. axis [-1,1,-1]      

 cryst.   s(22) = (    -1          1          0      )
                  (    -1          0          0      )
                  (    -1          0          1      )

 cart.    s(22) = (  0.0000000  0.0000000  1.0000000 )
                  ( -1.0000000  0.0000000  0.0000000 )
                  (  0.0000000 -1.0000000  0.0000000 )


      isym = 23     120 deg rotation - cart. axis [1,-1,-1]      

 cryst.   s(23) = (     0          0          1      )
                  (     1          0          0      )
                  (     0          1          0      )

 cart.    s(23) = (  0.0000000  0.0000000 -1.0000000 )
                  ( -1.0000000  0.0000000  0.0000000 )
                  (  0.0000000  1.0000000  0.0000000 )


      isym = 24     120 deg rotation - cart. axis [-1,-1,1]      

 cryst.   s(24) = (     1         -1          0      )
                  (     0         -1          1      )
                  (     0         -1          0      )

 cart.    s(24) = (  0.0000000  0.0000000 -1.0000000 )
                  (  1.0000000  0.0000000  0.0000000 )
                  (  0.0000000 -1.0000000  0.0000000 )


      isym = 25     inversion                                    

 cryst.   s(25) = (    -1          0          0      )    f =(  0.2500000 )
                  (     0         -1          0      )       (  0.2500000 )
                  (     0          0         -1      )       (  0.2500000 )

 cart.    s(25) = ( -1.0000000  0.0000000  0.0000000 )    f =( -0.2500000 )
                  (  0.0000000 -1.0000000  0.0000000 )       (  0.2500000 )
                  (  0.0000000  0.0000000 -1.0000000 )       (  0.2500000 )


      isym = 26     inv. 180 deg rotation - cart. axis [0,0,1]   

 cryst.   s(26) = (     0         -1          1      )    f =(  0.2500000 )
                  (    -1          0          1      )       (  0.2500000 )
                  (     0          0          1      )       (  0.2500000 )

 cart.    s(26) = (  1.0000000  0.0000000  0.0000000 )    f =( -0.2500000 )
                  (  0.0000000  1.0000000  0.0000000 )       (  0.2500000 )
                  (  0.0000000  0.0000000 -1.0000000 )       (  0.2500000 )


      isym = 27     inv. 180 deg rotation - cart. axis [0,1,0]   

 cryst.   s(27) = (     1          0          0      )    f =(  0.2500000 )
                  (     1          0         -1      )       (  0.2500000 )
                  (     1         -1          0      )       (  0.2500000 )

 cart.    s(27) = (  1.0000000  0.0000000  0.0000000 )    f =( -0.2500000 )
                  (  0.0000000 -1.0000000  0.0000000 )       (  0.2500000 )
                  (  0.0000000  0.0000000  1.0000000 )       (  0.2500000 )


      isym = 28     inv. 180 deg rotation - cart. axis [1,0,0]   

 cryst.   s(28) = (     0          1         -1      )    f =(  0.2500000 )
                  (     0          1          0      )       (  0.2500000 )
                  (    -1          1          0      )       (  0.2500000 )

 cart.    s(28) = ( -1.0000000  0.0000000  0.0000000 )    f =( -0.2500000 )
                  (  0.0000000  1.0000000  0.0000000 )       (  0.2500000 )
                  (  0.0000000  0.0000000  1.0000000 )       (  0.2500000 )


      isym = 29     inv. 180 deg rotation - cart. axis [1,1,0]   

 cryst.   s(29) = (     0          1          0      )
                  (     1          0          0      )
                  (     0          0          1      )

 cart.    s(29) = (  0.0000000 -1.0000000  0.0000000 )
                  ( -1.0000000  0.0000000  0.0000000 )
                  (  0.0000000  0.0000000  1.0000000 )


      isym = 30     inv. 180 deg rotation - cart. axis [1,-1,0]  

 cryst.   s(30) = (     1          0         -1      )
                  (     0          1         -1      )
                  (     0          0         -1      )

 cart.    s(30) = (  0.0000000  1.0000000  0.0000000 )
                  (  1.0000000  0.0000000  0.0000000 )
                  (  0.0000000  0.0000000  1.0000000 )


      isym = 31     inv.  90 deg rotation - cart. axis [0,0,-1]  

 cryst.   s(31) = (     0         -1          0      )
                  (     0         -1          1      )
                  (     1         -1          0      )

 cart.    s(31) = (  0.0000000 -1.0000000  0.0000000 )
                  (  1.0000000  0.0000000  0.0000000 )
                  (  0.0000000  0.0000000 -1.0000000 )


      isym = 32     inv.  90 deg rotation - cart. axis [0,0,1]   

 cryst.   s(32) = (    -1          0          1      )
                  (    -1          0          0      )
                  (    -1          1          0      )

 cart.    s(32) = (  0.0000000  1.0000000  0.0000000 )
                  ( -1.0000000  0.0000000  0.0000000 )
                  (  0.0000000  0.0000000 -1.0000000 )


      isym = 33     inv. 180 deg rotation - cart. axis [1,0,1]   

 cryst.   s(33) = (     1          0          0      )
                  (     0          0          1      )
                  (     0          1          0      )

 cart.    s(33) = (  0.0000000  0.0000000 -1.0000000 )
                  (  0.0000000  1.0000000  0.0000000 )
                  ( -1.0000000  0.0000000  0.0000000 )


      isym = 34     inv. 180 deg rotation - cart. axis [-1,0,1]  

 cryst.   s(34) = (    -1          0          0      )
                  (    -1          1          0      )
                  (    -1          0          1      )

 cart.    s(34) = (  0.0000000  0.0000000  1.0000000 )
                  (  0.0000000  1.0000000  0.0000000 )
                  (  1.0000000  0.0000000  0.0000000 )


      isym = 35     inv.  90 deg rotation - cart. axis [0,1,0]   

 cryst.   s(35) = (     0         -1          1      )
                  (     1         -1          0      )
                  (     0         -1          0      )

 cart.    s(35) = (  0.0000000  0.0000000 -1.0000000 )
                  (  0.0000000 -1.0000000  0.0000000 )
                  (  1.0000000  0.0000000  0.0000000 )


      isym = 36     inv.  90 deg rotation - cart. axis [0,-1,0]  

 cryst.   s(36) = (     0          1         -1      )
                  (     0          0         -1      )
                  (     1          0         -1      )

 cart.    s(36) = (  0.0000000  0.0000000  1.0000000 )
                  (  0.0000000 -1.0000000  0.0000000 )
                  ( -1.0000000  0.0000000  0.0000000 )


      isym = 37     inv. 180 deg rotation - cart. axis [0,1,1]   

 cryst.   s(37) = (     1         -1          0      )
                  (     0         -1          0      )
                  (     0         -1          1      )

 cart.    s(37) = (  1.0000000  0.0000000  0.0000000 )
                  (  0.0000000  0.0000000 -1.0000000 )
                  (  0.0000000 -1.0000000  0.0000000 )


      isym = 38     inv. 180 deg rotation - cart. axis [0,1,-1]  

 cryst.   s(38) = (     0          0          1      )
                  (     0          1          0      )
                  (     1          0          0      )

 cart.    s(38) = (  1.0000000  0.0000000  0.0000000 )
                  (  0.0000000  0.0000000  1.0000000 )
                  (  0.0000000  1.0000000  0.0000000 )


      isym = 39     inv.  90 deg rotation - cart. axis [-1,0,0]  

 cryst.   s(39) = (     0          0         -1      )
                  (     1          0         -1      )
                  (     0          1         -1      )

 cart.    s(39) = ( -1.0000000  0.0000000  0.0000000 )
                  (  0.0000000  0.0000000 -1.0000000 )
                  (  0.0000000  1.0000000  0.0000000 )


      isym = 40     inv.  90 deg rotation - cart. axis [1,0,0]   

 cryst.   s(40) = (    -1          1          0      )
                  (    -1          0          1      )
                  (    -1          0          0      )

 cart.    s(40) = ( -1.0000000  0.0000000  0.0000000 )
                  (  0.0000000  0.0000000  1.0000000 )
                  (  0.0000000 -1.0000000  0.0000000 )


      isym = 41     inv. 120 deg rotation - cart. axis [-1,-1,-1]

 cryst.   s(41) = (     1          0         -1      )    f =(  0.2500000 )
                  (     1         -1          0      )       (  0.2500000 )
                  (     1          0          0      )       (  0.2500000 )

 cart.    s(41) = (  0.0000000 -1.0000000  0.0000000 )    f =( -0.2500000 )
                  (  0.0000000  0.0000000 -1.0000000 )       (  0.2500000 )
                  ( -1.0000000  0.0000000  0.0000000 )       (  0.2500000 )


      isym = 42     inv. 120 deg rotation - cart. axis [-1,1,1]  

 cryst.   s(42) = (     0         -1          0      )    f =(  0.2500000 )
                  (     0          0         -1      )       (  0.2500000 )
                  (    -1          0          0      )       (  0.2500000 )

 cart.    s(42) = (  0.0000000  1.0000000  0.0000000 )    f =( -0.2500000 )
                  (  0.0000000  0.0000000 -1.0000000 )       (  0.2500000 )
                  (  1.0000000  0.0000000  0.0000000 )       (  0.2500000 )


      isym = 43     inv. 120 deg rotation - cart. axis [1,1,-1]  

 cryst.   s(43) = (    -1          0          1      )    f =(  0.2500000 )
                  (     0          0          1      )       (  0.2500000 )
                  (     0         -1          1      )       (  0.2500000 )

 cart.    s(43) = (  0.0000000 -1.0000000  0.0000000 )    f =( -0.2500000 )
                  (  0.0000000  0.0000000  1.0000000 )       (  0.2500000 )
                  (  1.0000000  0.0000000  0.0000000 )       (  0.2500000 )


      isym = 44     inv. 120 deg rotation - cart. axis [1,-1,1]  

 cryst.   s(44) = (     0          1          0      )    f =(  0.2500000 )
                  (    -1          1          0      )       (  0.2500000 )
                  (     0          1         -1      )       (  0.2500000 )

 cart.    s(44) = (  0.0000000  1.0000000  0.0000000 )    f =( -0.2500000 )
                  (  0.0000000  0.0000000  1.0000000 )       (  0.2500000 )
                  ( -1.0000000  0.0000000  0.0000000 )       (  0.2500000 )


      isym = 45     inv. 120 deg rotation - cart. axis [1,1,1]   

 cryst.   s(45) = (     0          0          1      )    f =(  0.2500000 )
                  (     0         -1          1      )       (  0.2500000 )
                  (    -1          0          1      )       (  0.2500000 )

 cart.    s(45) = (  0.0000000  0.0000000 -1.0000000 )    f =( -0.2500000 )
                  ( -1.0000000  0.0000000  0.0000000 )       (  0.2500000 )
                  (  0.0000000 -1.0000000  0.0000000 )       (  0.2500000 )


      isym = 46     inv. 120 deg rotation - cart. axis [-1,1,-1] 

 cryst.   s(46) = (     1         -1          0      )    f =(  0.2500000 )
                  (     1          0          0      )       (  0.2500000 )
                  (     1          0         -1      )       (  0.2500000 )

 cart.    s(46) = (  0.0000000  0.0000000 -1.0000000 )    f =( -0.2500000 )
                  (  1.0000000  0.0000000  0.0000000 )       (  0.2500000 )
                  (  0.0000000  1.0000000  0.0000000 )       (  0.2500000 )


      isym = 47     inv. 120 deg rotation - cart. axis [1,-1,-1] 

 cryst.   s(47) = (     0          0         -1      )    f =(  0.2500000 )
                  (    -1          0          0      )       (  0.2500000 )
                  (     0         -1          0      )       (  0.2500000 )

 cart.    s(47) = (  0.0000000  0.0000000  1.0000000 )    f =( -0.2500000 )
                  (  1.0000000  0.0000000  0.0000000 )       (  0.2500000 )
                  (  0.0000000 -1.0000000  0.0000000 )       (  0.2500000 )


      isym = 48     inv. 120 deg rotation - cart. axis [-1,-1,1] 

 cryst.   s(48) = (    -1          1          0      )    f =(  0.2500000 )
                  (     0          1         -1      )       (  0.2500000 )
                  (     0          1          0      )       (  0.2500000 )

 cart.    s(48) = (  0.0000000  0.0000000  1.0000000 )    f =( -0.2500000 )
                  ( -1.0000000  0.0000000  0.0000000 )       (  0.2500000 )
                  (  0.0000000  1.0000000  0.0000000 )       (  0.2500000 )


     point group O_h (m-3m) 
     there are 10 classes
     the character table:

       E     8C3   3C2   6C4   6C2'  i     8S6   3s_h  6S4   6s_d 
A_1g   1.00  1.00  1.00  1.00  1.00  1.00  1.00  1.00  1.00  1.00
A_2g   1.00  1.00  1.00 -1.00 -1.00  1.00  1.00  1.00 -1.00 -1.00
E_g    2.00 -1.00  2.00  0.00  0.00  2.00 -1.00  2.00  0.00  0.00
T_1g   3.00  0.00 -1.00  1.00 -1.00  3.00  0.00 -1.00  1.00 -1.00
T_2g   3.00  0.00 -1.00 -1.00  1.00  3.00  0.00 -1.00 -1.00  1.00
A_1u   1.00  1.00  1.00  1.00  1.00 -1.00 -1.00 -1.00 -1.00 -1.00
A_2u   1.00  1.00  1.00 -1.00 -1.00 -1.00 -1.00 -1.00  1.00  1.00
E_u    2.00 -1.00  2.00  0.00  0.00 -2.00  1.00 -2.00  0.00  0.00
T_1u   3.00  0.00 -1.00  1.00 -1.00 -3.00  0.00  1.00 -1.00  1.00
T_2u   3.00  0.00 -1.00 -1.00  1.00 -3.00  0.00  1.00  1.00 -1.00

     the symmetry operations in each class and the name of the first element:

     E        1
          identity                                               
     8C3     17   19   20   18   24   21   22   23
          120 deg rotation - cart. axis [-1,-1,-1]               
     3C2      2    4    3
          180 deg rotation - cart. axis [0,0,1]                  
     6C4      7    8   15   16   12   11
           90 deg rotation - cart. axis [0,0,-1]                 
     6C2'     5    6   14   13   10    9
          180 deg rotation - cart. axis [1,1,0]                  
     i       25
          inversion                                              
     8S6     41   43   44   42   48   45   46   47
          inv. 120 deg rotation - cart. axis [-1,-1,-1]          
     3s_h    26   28   27
          inv. 180 deg rotation - cart. axis [0,0,1]             
     6S4     31   32   39   40   36   35
          inv.  90 deg rotation - cart. axis [0,0,-1]            
     6s_d    29   30   38   37   34   33
          inv. 180 deg rotation - cart. axis [1,1,0]             

   Cartesian axes

     site n.     atom                  positions (alat units)
         1        Si     tau(   1) = (   0.0000000   0.0000000   0.0000000  )
         2        Si     tau(   2) = (   0.2500000   0.2500000   0.2500000  )

   Crystallographic axes

     site n.     atom                  positions (cryst. coord.)
         1        Si     tau(   1) = (  0.0000000  0.0000000  0.0000000  )
         2        Si     tau(   2) = ( -0.2500000  0.7500000 -0.2500000  )

     number of k points=    91
                       cart. coord. in units 2pi/alat
        k(    1) = (   0.5000000   0.5000000   0.5000000), wk =   0.0219780
        k(    2) = (   0.4750000   0.4750000   0.4750000), wk =   0.0219780
        k(    3) = (   0.4500000   0.4500000   0.4500000), wk =   0.0219780
        k(    4) = (   0.4250000   0.4250000   0.4250000), wk =   0.0219780
        k(    5) = (   0.4000000   0.4000000   0.4000000), wk =   0.0219780
        k(    6) = (   0.3750000   0.3750000   0.3750000), wk =   0.0219780
        k(    7) = (   0.3500000   0.3500000   0.3500000), wk =   0.0219780
        k(    8) = (   0.3250000   0.3250000   0.3250000), wk =   0.0219780
        k(    9) = (   0.3000000   0.3000000   0.3000000), wk =   0.0219780
        k(   10) = (   0.2750000   0.2750000   0.2750000), wk =   0.0219780
        k(   11) = (   0.2500000   0.2500000   0.2500000), wk =   0.0219780
        k(   12) = (   0.2250000   0.2250000   0.2250000), wk =   0.0219780
        k(   13) = (   0.2000000   0.2000000   0.2000000), wk =   0.0219780
        k(   14) = (   0.1750000   0.1750000   0.1750000), wk =   0.0219780
        k(   15) = (   0.1500000   0.1500000   0.1500000), wk =   0.0219780
        k(   16) = (   0.1250000   0.1250000   0.1250000), wk =   0.0219780
        k(   17) = (   0.1000000   0.1000000   0.1000000), wk =   0.0219780
        k(   18) = (   0.0750000   0.0750000   0.0750000), wk =   0.0219780
        k(   19) = (   0.0500000   0.0500000   0.0500000), wk =   0.0219780
        k(   20) = (   0.0250000   0.0250000   0.0250000), wk =   0.0219780
        k(   21) = (   0.0000000   0.0000000   0.0000000), wk =   0.0219780
        k(   22) = (   0.0333333   0.0000000   0.0000000), wk =   0.0219780
        k(   23) = (   0.0666667   0.0000000   0.0000000), wk =   0.0219780
        k(   24) = (   0.1000000   0.0000000   0.0000000), wk =   0.0219780
        k(   25) = (   0.1333333   0.0000000   0.0000000), wk =   0.0219780
        k(   26) = (   0.1666667   0.0000000   0.0000000), wk =   0.0219780
        k(   27) = (   0.2000000   0.0000000   0.0000000), wk =   0.0219780
        k(   28) = (   0.2333333   0.0000000   0.0000000), wk =   0.0219780
        k(   29) = (   0.2666667   0.0000000   0.0000000), wk =   0.0219780
        k(   30) = (   0.3000000   0.0000000   0.0000000), wk =   0.0219780
        k(   31) = (   0.3333333   0.0000000   0.0000000), wk =   0.0219780
        k(   32) = (   0.3666667   0.0000000   0.0000000), wk =   0.0219780
        k(   33) = (   0.4000000   0.0000000   0.0000000), wk =   0.0219780
        k(   34) = (   0.4333333   0.0000000   0.0000000), wk =   0.0219780
        k(   35) = (   0.4666667   0.0000000   0.0000000), wk =   0.0219780
        k(   36) = (   0.5000000   0.0000000   0.0000000), wk =   0.0219780
        k(   37) = (   0.5333333   0.0000000   0.0000000), wk =   0.0219780
        k(   38) = (   0.5666667   0.0000000   0.0000000), wk =   0.0219780
        k(   39) = (   0.6000000   0.0000000   0.0000000), wk =   0.0219780
        k(   40) = (   0.6333333   0.0000000   0.0000000), wk =   0.0219780
        k(   41) = (   0.6666667   0.0000000   0.0000000), wk =   0.0219780
        k(   42) = (   0.7000000   0.0000000   0.0000000), wk =   0.0219780
        k(   43) = (   0.7333333   0.0000000   0.0000000), wk =   0.0219780
        k(   44) = (   0.7666667   0.0000000   0.0000000), wk =   0.0219780
        k(   45) = (   0.8000000   0.0000000   0.0000000), wk =   0.0219780
        k(   46) = (   0.8333333   0.0000000   0.0000000), wk =   0.0219780
        k(   47) = (   0.8666667   0.0000000   0.0000000), wk =   0.0219780
        k(   48) = (   0.9000000   0.0000000   0.0000000), wk =   0.0219780
        k(   49) = (   0.9333333   0.0000000   0.0000000), wk =   0.0219780
        k(   50) = (   0.9666667   0.0000000   0.0000000), wk =   0.0219780
        k(   51) = (   1.0000000   0.0000000   0.0000000), wk =   0.0219780
        k(   52) = (   1.0000000   0.0250000   0.0250000), wk =   0.0219780
        k(   53) = (   1.0000000   0.0500000   0.0500000), wk =   0.0219780
        k(   54) = (   1.0000000   0.0750000   0.0750000), wk =   0.0219780
        k(   55) = (   1.0000000   0.1000000   0.1000000), wk =   0.0219780
        k(   56) = (   1.0000000   0.1250000   0.1250000), wk =   0.0219780
        k(   57) = (   1.0000000   0.1500000   0.1500000), wk =   0.0219780
        k(   58) = (   1.0000000   0.1750000   0.1750000), wk =   0.0219780
        k(   59) = (   1.0000000   0.2000000   0.2000000), wk =   0.0219780
        k(   60) = (   1.0000000   0.2250000   0.2250000), wk =   0.0219780
        k(   61) = (   1.0000000   0.2500000   0.2500000), wk =   0.0219780
        k(   62) = (   0.9666667   0.2416667   0.2416667), wk =   0.0219780
        k(   63) = (   0.9333333   0.2333333   0.2333333), wk =   0.0219780
        k(   64) = (   0.9000000   0.2250000   0.2250000), wk =   0.0219780
        k(   65) = (   0.8666667   0.2166667   0.2166667), wk =   0.0219780
        k(   66) = (   0.8333333   0.2083333   0.2083333), wk =   0.0219780
        k(   67) = (   0.8000000   0.2000000   0.2000000), wk =   0.0219780
        k(   68) = (   0.7666667   0.1916667   0.1916667), wk =   0.0219780
        k(   69) = (   0.7333333   0.1833333   0.1833333), wk =   0.0219780
        k(   70) = (   0.7000000   0.1750000   0.1750000), wk =   0.0219780
        k(   71) = (   0.6666667   0.1666667   0.1666667), wk =   0.0219780
        k(   72) = (   0.6333333   0.1583333   0.1583333), wk =   0.0219780
        k(   73) = (   0.6000000   0.1500000   0.1500000), wk =   0.0219780
        k(   74) = (   0.5666667   0.1416667   0.1416667), wk =   0.0219780
        k(   75) = (   0.5333333   0.1333333   0.1333333), wk =   0.0219780
        k(   76) = (   0.5000000   0.1250000   0.1250000), wk =   0.0219780
        k(   77) = (   0.4666667   0.1166667   0.1166667), wk =   0.0219780
        k(   78) = (   0.4333333   0.1083333   0.1083333), wk =   0.0219780
        k(   79) = (   0.4000000   0.1000000   0.1000000), wk =   0.0219780
        k(   80) = (   0.3666667   0.0916667   0.0916667), wk =   0.0219780
        k(   81) = (   0.3333333   0.0833333   0.0833333), wk =   0.0219780
        k(   82) = (   0.3000000   0.0750000   0.0750000), wk =   0.0219780
        k(   83) = (   0.2666667   0.0666667   0.0666667), wk =   0.0219780
        k(   84) = (   0.2333333   0.0583333   0.0583333), wk =   0.0219780
        k(   85) = (   0.2000000   0.0500000   0.0500000), wk =   0.0219780
        k(   86) = (   0.1666667   0.0416667   0.0416667), wk =   0.0219780
        k(   87) = (   0.1333333   0.0333333   0.0333333), wk =   0.0219780
        k(   88) = (   0.1000000   0.0250000   0.0250000), wk =   0.0219780
        k(   89) = (   0.0666667   0.0166667   0.0166667), wk =   0.0219780
        k(   90) = (   0.0333333   0.0083333   0.0083333), wk =   0.0219780
        k(   91) = (   0.0000000   0.0000000   0.0000000), wk =   0.0219780

                       cryst. coord.
        k(    1) = (   0.0000000   0.5000000   0.0000000), wk =   0.0219780
        k(    2) = (   0.0000000   0.4750000   0.0000000), wk =   0.0219780
        k(    3) = (   0.0000000   0.4500000   0.0000000), wk =   0.0219780
        k(    4) = (   0.0000000   0.4250000   0.0000000), wk =   0.0219780
        k(    5) = (   0.0000000   0.4000000   0.0000000), wk =   0.0219780
        k(    6) = (   0.0000000   0.3750000   0.0000000), wk =   0.0219780
        k(    7) = (   0.0000000   0.3500000   0.0000000), wk =   0.0219780
        k(    8) = (   0.0000000   0.3250000   0.0000000), wk =   0.0219780
        k(    9) = (   0.0000000   0.3000000   0.0000000), wk =   0.0219780
        k(   10) = (   0.0000000   0.2750000   0.0000000), wk =   0.0219780
        k(   11) = (   0.0000000   0.2500000   0.0000000), wk =   0.0219780
        k(   12) = (   0.0000000   0.2250000   0.0000000), wk =   0.0219780
        k(   13) = (   0.0000000   0.2000000   0.0000000), wk =   0.0219780
        k(   14) = (   0.0000000   0.1750000   0.0000000), wk =   0.0219780
        k(   15) = (   0.0000000   0.1500000   0.0000000), wk =   0.0219780
        k(   16) = (   0.0000000   0.1250000   0.0000000), wk =   0.0219780
        k(   17) = (   0.0000000   0.1000000   0.0000000), wk =   0.0219780
        k(   18) = (   0.0000000   0.0750000   0.0000000), wk =   0.0219780
        k(   19) = (   0.0000000   0.0500000   0.0000000), wk =   0.0219780
        k(   20) = (   0.0000000   0.0250000   0.0000000), wk =   0.0219780
        k(   21) = (   0.0000000   0.0000000   0.0000000), wk =   0.0219780
        k(   22) = (  -0.0166667   0.0000000  -0.0166667), wk =   0.0219780
        k(   23) = (  -0.0333333   0.0000000  -0.0333333), wk =   0.0219780
        k(   24) = (  -0.0500000   0.0000000  -0.0500000), wk =   0.0219780
        k(   25) = (  -0.0666667   0.0000000  -0.0666667), wk =   0.0219780
        k(   26) = (  -0.0833333   0.0000000  -0.0833333), wk =   0.0219780
        k(   27) = (  -0.1000000   0.0000000  -0.1000000), wk =   0.0219780
        k(   28) = (  -0.1166667   0.0000000  -0.1166667), wk =   0.0219780
        k(   29) = (  -0.1333333   0.0000000  -0.1333333), wk =   0.0219780
        k(   30) = (  -0.1500000   0.0000000  -0.1500000), wk =   0.0219780
        k(   31) = (  -0.1666667   0.0000000  -0.1666667), wk =   0.0219780
        k(   32) = (  -0.1833333   0.0000000  -0.1833333), wk =   0.0219780
        k(   33) = (  -0.2000000   0.0000000  -0.2000000), wk =   0.0219780
        k(   34) = (  -0.2166667   0.0000000  -0.2166667), wk =   0.0219780
        k(   35) = (  -0.2333333   0.0000000  -0.2333333), wk =   0.0219780
        k(   36) = (  -0.2500000   0.0000000  -0.2500000), wk =   0.0219780
        k(   37) = (  -0.2666667   0.0000000  -0.2666667), wk =   0.0219780
        k(   38) = (  -0.2833333   0.0000000  -0.2833333), wk =   0.0219780
        k(   39) = (  -0.3000000   0.0000000  -0.3000000), wk =   0.0219780
        k(   40) = (  -0.3166667   0.0000000  -0.3166667), wk =   0.0219780
        k(   41) = (  -0.3333333   0.0000000  -0.3333333), wk =   0.0219780
        k(   42) = (  -0.3500000   0.0000000  -0.3500000), wk =   0.0219780
        k(   43) = (  -0.3666667   0.0000000  -0.3666667), wk =   0.0219780
        k(   44) = (  -0.3833333   0.0000000  -0.3833333), wk =   0.0219780
        k(   45) = (  -0.4000000   0.0000000  -0.4000000), wk =   0.0219780
        k(   46) = (  -0.4166667   0.0000000  -0.4166667), wk =   0.0219780
        k(   47) = (  -0.4333333   0.0000000  -0.4333333), wk =   0.0219780
        k(   48) = (  -0.4500000   0.0000000  -0.4500000), wk =   0.0219780
        k(   49) = (  -0.4666667   0.0000000  -0.4666667), wk =   0.0219780
        k(   50) = (  -0.4833333   0.0000000  -0.4833333), wk =   0.0219780
        k(   51) = (  -0.5000000   0.0000000  -0.5000000), wk =   0.0219780
        k(   52) = (  -0.4875000   0.0250000  -0.4875000), wk =   0.0219780
        k(   53) = (  -0.4750000   0.0500000  -0.4750000), wk =   0.0219780
        k(   54) = (  -0.4625000   0.0750000  -0.4625000), wk =   0.0219780
        k(   55) = (  -0.4500000   0.1000000  -0.4500000), wk =   0.0219780
        k(   56) = (  -0.4375000   0.1250000  -0.4375000), wk =   0.0219780
        k(   57) = (  -0.4250000   0.1500000  -0.4250000), wk =   0.0219780
        k(   58) = (  -0.4125000   0.1750000  -0.4125000), wk =   0.0219780
        k(   59) = (  -0.4000000   0.2000000  -0.4000000), wk =   0.0219780
        k(   60) = (  -0.3875000   0.2250000  -0.3875000), wk =   0.0219780
        k(   61) = (  -0.3750000   0.2500000  -0.3750000), wk =   0.0219780
        k(   62) = (  -0.3625000   0.2416667  -0.3625000), wk =   0.0219780
        k(   63) = (  -0.3500000   0.2333333  -0.3500000), wk =   0.0219780
        k(   64) = (  -0.3375000   0.2250000  -0.3375000), wk =   0.0219780
        k(   65) = (  -0.3250000   0.2166667  -0.3250000), wk =   0.0219780
        k(   66) = (  -0.3125000   0.2083333  -0.3125000), wk =   0.0219780
        k(   67) = (  -0.3000000   0.2000000  -0.3000000), wk =   0.0219780
        k(   68) = (  -0.2875000   0.1916667  -0.2875000), wk =   0.0219780
        k(   69) = (  -0.2750000   0.1833333  -0.2750000), wk =   0.0219780
        k(   70) = (  -0.2625000   0.1750000  -0.2625000), wk =   0.0219780
        k(   71) = (  -0.2500000   0.1666667  -0.2500000), wk =   0.0219780
        k(   72) = (  -0.2375000   0.1583333  -0.2375000), wk =   0.0219780
        k(   73) = (  -0.2250000   0.1500000  -0.2250000), wk =   0.0219780
        k(   74) = (  -0.2125000   0.1416667  -0.2125000), wk =   0.0219780
        k(   75) = (  -0.2000000   0.1333333  -0.2000000), wk =   0.0219780
        k(   76) = (  -0.1875000   0.1250000  -0.1875000), wk =   0.0219780
        k(   77) = (  -0.1750000   0.1166667  -0.1750000), wk =   0.0219780
        k(   78) = (  -0.1625000   0.1083333  -0.1625000), wk =   0.0219780
        k(   79) = (  -0.1500000   0.1000000  -0.1500000), wk =   0.0219780
        k(   80) = (  -0.1375000   0.0916667  -0.1375000), wk =   0.0219780
        k(   81) = (  -0.1250000   0.0833333  -0.1250000), wk =   0.0219780
        k(   82) = (  -0.1125000   0.0750000  -0.1125000), wk =   0.0219780
        k(   83) = (  -0.1000000   0.0666667  -0.1000000), wk =   0.0219780
        k(   84) = (  -0.0875000   0.0583333  -0.0875000), wk =   0.0219780
        k(   85) = (  -0.0750000   0.0500000  -0.0750000), wk =   0.0219780
        k(   86) = (  -0.0625000   0.0416667  -0.0625000), wk =   0.0219780
        k(   87) = (  -0.0500000   0.0333333  -0.0500000), wk =   0.0219780
        k(   88) = (  -0.0375000   0.0250000  -0.0375000), wk =   0.0219780
        k(   89) = (  -0.0250000   0.0166667  -0.0250000), wk =   0.0219780
        k(   90) = (  -0.0125000   0.0083333  -0.0125000), wk =   0.0219780
        k(   91) = (   0.0000000   0.0000000   0.0000000), wk =   0.0219780

     Dense  grid:    35749 G-vectors     FFT dimensions: (  48,  48,  48)

     Smooth grid:    12627 G-vectors     FFT dimensions: (  36,  36,  36)

     Dynamical RAM for                 wfc:       0.06 MB

     Dynamical RAM for     wfc (w. buffer):       0.06 MB

     Dynamical RAM for           str. fact:       0.18 MB

     Dynamical RAM for           local pot:       0.00 MB

     Dynamical RAM for          nlocal pot:       0.13 MB

     Dynamical RAM for                qrad:       0.46 MB

     Dynamical RAM for          rho,v,vnew:       1.39 MB

     Dynamical RAM for           G-vectors:       0.71 MB

     Dynamical RAM for          h,s,v(r/c):       0.01 MB

     Dynamical RAM for          <psi|beta>:       0.00 MB

     Dynamical RAM for                 psi:       0.13 MB

     Dynamical RAM for                hpsi:       0.13 MB

     Dynamical RAM for                spsi:       0.13 MB

     Dynamical RAM for      wfcinit/wfcrot:       0.13 MB

     Dynamical RAM for           addusdens:       8.18 MB

     Estimated static dynamical RAM per process >       4.71 MB

     Estimated max dynamical RAM per process >      12.89 MB

     Estimated total dynamical RAM >      38.67 MB

     The potential is recalculated from file :
     ./tmp/silicon.save/charge-density

     Starting wfcs are    8 randomized atomic wfcs
     Checking if some PAW data can be deallocated... 

     Band Structure Calculation
     Davidson diagonalization with overlap

     Computing kpt #:     1  of    91
     total cpu time spent up to now is        9.8 secs

     Computing kpt #:     2  of    91
     total cpu time spent up to now is       18.9 secs

     Computing kpt #:     3  of    91
     total cpu time spent up to now is       27.5 secs

     Computing kpt #:     4  of    91
     total cpu time spent up to now is       36.2 secs

     Computing kpt #:     5  of    91
     total cpu time spent up to now is       45.2 secs

     Computing kpt #:     6  of    91
     total cpu time spent up to now is       55.5 secs

     Computing kpt #:     7  of    91
     total cpu time spent up to now is       66.0 secs

     Computing kpt #:     8  of    91
     total cpu time spent up to now is       78.6 secs

     Computing kpt #:     9  of    91
     total cpu time spent up to now is       92.7 secs

     Computing kpt #:    10  of    91
     total cpu time spent up to now is      101.6 secs

     Computing kpt #:    11  of    91
     total cpu time spent up to now is      111.3 secs

     Computing kpt #:    12  of    91
     total cpu time spent up to now is      121.8 secs

     Computing kpt #:    13  of    91
     total cpu time spent up to now is      130.3 secs

     Computing kpt #:    14  of    91
     total cpu time spent up to now is      139.1 secs

     Computing kpt #:    15  of    91
     total cpu time spent up to now is      147.5 secs

     Computing kpt #:    16  of    91
     total cpu time spent up to now is      155.7 secs

     Computing kpt #:    17  of    91
     total cpu time spent up to now is      163.6 secs

     Computing kpt #:    18  of    91
     total cpu time spent up to now is      170.7 secs

     Computing kpt #:    19  of    91
     total cpu time spent up to now is      178.0 secs

     Computing kpt #:    20  of    91
     total cpu time spent up to now is      184.7 secs

     Computing kpt #:    21  of    91
     total cpu time spent up to now is      191.2 secs

     Computing kpt #:    22  of    91
     total cpu time spent up to now is      197.8 secs

     Computing kpt #:    23  of    91
     total cpu time spent up to now is      204.4 secs

     Computing kpt #:    24  of    91
     total cpu time spent up to now is      211.0 secs

     Computing kpt #:    25  of    91
     total cpu time spent up to now is      217.7 secs

     Computing kpt #:    26  of    91
     total cpu time spent up to now is      225.3 secs

     Computing kpt #:    27  of    91
     total cpu time spent up to now is      232.9 secs

     Computing kpt #:    28  of    91
     total cpu time spent up to now is      241.1 secs

     Computing kpt #:    29  of    91
     total cpu time spent up to now is      249.7 secs

     Computing kpt #:    30  of    91
     total cpu time spent up to now is      259.3 secs

     Computing kpt #:    31  of    91
     total cpu time spent up to now is      267.6 secs

     Computing kpt #:    32  of    91
     total cpu time spent up to now is      276.2 secs

     Computing kpt #:    33  of    91
     total cpu time spent up to now is      284.7 secs

     Computing kpt #:    34  of    91
     total cpu time spent up to now is      292.9 secs

     Computing kpt #:    35  of    91
     total cpu time spent up to now is      300.9 secs

     Computing kpt #:    36  of    91
     total cpu time spent up to now is      308.6 secs

     Computing kpt #:    37  of    91
     total cpu time spent up to now is      317.0 secs

     Computing kpt #:    38  of    91
     total cpu time spent up to now is      325.4 secs

     Computing kpt #:    39  of    91
     total cpu time spent up to now is      333.2 secs

     Computing kpt #:    40  of    91
     total cpu time spent up to now is      342.2 secs

     Computing kpt #:    41  of    91
     total cpu time spent up to now is      351.6 secs

     Computing kpt #:    42  of    91
     total cpu time spent up to now is      360.4 secs

     Computing kpt #:    43  of    91
     total cpu time spent up to now is      368.3 secs

     Computing kpt #:    44  of    91
     total cpu time spent up to now is      376.3 secs

     Computing kpt #:    45  of    91
     total cpu time spent up to now is      385.0 secs

     Computing kpt #:    46  of    91
     total cpu time spent up to now is      393.2 secs

     Computing kpt #:    47  of    91
     total cpu time spent up to now is      400.3 secs

     Computing kpt #:    48  of    91
     total cpu time spent up to now is      409.0 secs

     Computing kpt #:    49  of    91
     total cpu time spent up to now is      417.2 secs

     Computing kpt #:    50  of    91
     total cpu time spent up to now is      425.8 secs

     Computing kpt #:    51  of    91
     total cpu time spent up to now is      433.4 secs

     Computing kpt #:    52  of    91
     total cpu time spent up to now is      441.9 secs

     Computing kpt #:    53  of    91
     total cpu time spent up to now is      450.2 secs

     Computing kpt #:    54  of    91
     total cpu time spent up to now is      459.1 secs

     Computing kpt #:    55  of    91
     total cpu time spent up to now is      468.3 secs

     Computing kpt #:    56  of    91
     total cpu time spent up to now is      477.0 secs

     Computing kpt #:    57  of    91
     total cpu time spent up to now is      486.4 secs

     Computing kpt #:    58  of    91
     total cpu time spent up to now is      499.8 secs

     Computing kpt #:    59  of    91
     total cpu time spent up to now is      514.5 secs

     Computing kpt #:    60  of    91
     total cpu time spent up to now is      527.3 secs

     Computing kpt #:    61  of    91
     total cpu time spent up to now is      538.3 secs

     Computing kpt #:    62  of    91
     total cpu time spent up to now is      547.3 secs

     Computing kpt #:    63  of    91
     total cpu time spent up to now is      556.6 secs

     Computing kpt #:    64  of    91
     total cpu time spent up to now is      565.1 secs

     Computing kpt #:    65  of    91
     total cpu time spent up to now is      573.6 secs

     Computing kpt #:    66  of    91
     total cpu time spent up to now is      581.7 secs

     Computing kpt #:    67  of    91
     total cpu time spent up to now is      589.8 secs

     Computing kpt #:    68  of    91
     total cpu time spent up to now is      598.3 secs

     Computing kpt #:    69  of    91
     total cpu time spent up to now is      606.7 secs

     Computing kpt #:    70  of    91
     total cpu time spent up to now is      615.4 secs

     Computing kpt #:    71  of    91
     total cpu time spent up to now is      623.4 secs

     Computing kpt #:    72  of    91
     total cpu time spent up to now is      632.0 secs

     Computing kpt #:    73  of    91
     total cpu time spent up to now is      640.2 secs

     Computing kpt #:    74  of    91
     total cpu time spent up to now is      648.7 secs

     Computing kpt #:    75  of    91
     total cpu time spent up to now is      657.0 secs

     Computing kpt #:    76  of    91
     total cpu time spent up to now is      665.5 secs

     Computing kpt #:    77  of    91
     total cpu time spent up to now is      674.4 secs

     Computing kpt #:    78  of    91
     total cpu time spent up to now is      683.6 secs

     Computing kpt #:    79  of    91
     total cpu time spent up to now is      692.8 secs

     Computing kpt #:    80  of    91
     total cpu time spent up to now is      702.0 secs

     Computing kpt #:    81  of    91
     total cpu time spent up to now is      711.1 secs

     Computing kpt #:    82  of    91
     total cpu time spent up to now is      721.2 secs

     Computing kpt #:    83  of    91
     total cpu time spent up to now is      730.4 secs

     Computing kpt #:    84  of    91
     total cpu time spent up to now is      739.6 secs

     Computing kpt #:    85  of    91
     total cpu time spent up to now is      749.3 secs

     Computing kpt #:    86  of    91
     total cpu time spent up to now is      758.8 secs

     Computing kpt #:    87  of    91
     total cpu time spent up to now is      766.7 secs

     Computing kpt #:    88  of    91
     total cpu time spent up to now is      773.9 secs

     Computing kpt #:    89  of    91
     total cpu time spent up to now is      781.4 secs

     Computing kpt #:    90  of    91
     total cpu time spent up to now is      788.7 secs

     Computing kpt #:    91  of    91
     total cpu time spent up to now is      795.7 secs

     ethr =  1.25E-10,  avg # of iterations = 26.6

     total cpu time spent up to now is      795.7 secs

     End of band structure calculation

          k = 0.5000 0.5000 0.5000 (  1568 PWs)   bands (ev):

    -3.5029  -0.8756   4.9884   4.9884   7.6717   9.4896   9.4896  13.7373

          k = 0.4750 0.4750 0.4750 (  1574 PWs)   bands (ev):

    -3.5397  -0.8231   4.9929   4.9929   7.6769   9.4951   9.4951  13.7459

          k = 0.4500 0.4500 0.4500 (  1580 PWs)   bands (ev):

    -3.6421  -0.6740   5.0063   5.0063   7.6925   9.5112   9.5112  13.7710

          k = 0.4250 0.4250 0.4250 (  1586 PWs)   bands (ev):

    -3.7914  -0.4467   5.0288   5.0288   7.7185   9.5368   9.5368  13.8108

          k = 0.4000 0.4000 0.4000 (  1586 PWs)   bands (ev):

    -3.9688  -0.1604   5.0602   5.0602   7.7547   9.5698   9.5698  13.8609

          k = 0.3750 0.3750 0.3750 (  1592 PWs)   bands (ev):

    -4.1599   0.1701   5.1004   5.1004   7.8010   9.6074   9.6074  13.9123

          k = 0.3500 0.3500 0.3500 (  1597 PWs)   bands (ev):

    -4.3548   0.5347   5.1495   5.1495   7.8572   9.6453   9.6453  13.9444

          k = 0.3250 0.3250 0.3250 (  1594 PWs)   bands (ev):

    -4.5469   0.9263   5.2073   5.2073   7.9228   9.6782   9.6782  13.9123

          k = 0.3000 0.3000 0.3000 (  1600 PWs)   bands (ev):

    -4.7321   1.3401   5.2734   5.2734   7.9975   9.6995   9.6995  13.7511

          k = 0.2750 0.2750 0.2750 (  1588 PWs)   bands (ev):

    -4.9075   1.7723   5.3475   5.3475   8.0804   9.7018   9.7018  13.4530

          k = 0.2500 0.2500 0.2500 (  1582 PWs)   bands (ev):

    -5.0711   2.2199   5.4291   5.4291   8.1706   9.6783   9.6783  13.0740

          k = 0.2250 0.2250 0.2250 (  1579 PWs)   bands (ev):

    -5.2216   2.6802   5.5173   5.5173   8.2668   9.6245   9.6245  12.6573

          k = 0.2000 0.2000 0.2000 (  1576 PWs)   bands (ev):

    -5.3580   3.1500   5.6110   5.6110   8.3671   9.5399   9.5399  12.2225

          k = 0.1750 0.1750 0.1750 (  1570 PWs)   bands (ev):

    -5.4796   3.6262   5.7084   5.7084   8.4687   9.4290   9.4290  11.7793

          k = 0.1500 0.1500 0.1500 (  1570 PWs)   bands (ev):

    -5.5857   4.1041   5.8075   5.8075   8.5679   9.2999   9.2999  11.3342

          k = 0.1250 0.1250 0.1250 (  1570 PWs)   bands (ev):

    -5.6762   4.5775   5.9050   5.9050   8.6594   9.1630   9.1630  10.8951

          k = 0.1000 0.1000 0.1000 (  1570 PWs)   bands (ev):

    -5.7505   5.0366   5.9970   5.9970   8.7353   9.0292   9.0292  10.4745

          k = 0.0750 0.0750 0.0750 (  1570 PWs)   bands (ev):

    -5.8085   5.4653   6.0784   6.0784   8.7838   8.9096   8.9096  10.0948

          k = 0.0500 0.0500 0.0500 (  1588 PWs)   bands (ev):

    -5.8501   5.8356   6.1430   6.1430   8.7905   8.8147   8.8147   9.7928

          k = 0.0250 0.0250 0.0250 (  1615 PWs)   bands (ev):

    -5.8750   6.1005   6.1850   6.1850   8.7534   8.7534   8.7569   9.6087

          k = 0.0000 0.0000 0.0000 (  1591 PWs)   bands (ev):

    -5.8834   6.1996   6.1996   6.1996   8.7321   8.7321   8.7321   9.5507

          k = 0.0333 0.0000 0.0000 (  1615 PWs)   bands (ev):

    -5.8784   6.1659   6.1778   6.1778   8.7191   8.7599   8.7599   9.5837

          k = 0.0667 0.0000 0.0000 (  1595 PWs)   bands (ev):

    -5.8636   6.0687   6.1152   6.1152   8.6808   8.8405   8.8405   9.6782

          k = 0.1000 0.0000 0.0000 (  1579 PWs)   bands (ev):

    -5.8389   5.9180   6.0188   6.0188   8.6193   8.9667   8.9667   9.8222

          k = 0.1333 0.0000 0.0000 (  1579 PWs)   bands (ev):

    -5.8044   5.7256   5.8972   5.8972   8.5377   9.1298   9.1298   9.9996

          k = 0.1667 0.0000 0.0000 (  1571 PWs)   bands (ev):

    -5.7601   5.5024   5.7585   5.7585   8.4397   9.3219   9.3219  10.1919

          k = 0.2000 0.0000 0.0000 (  1571 PWs)   bands (ev):

    -5.7059   5.2568   5.6089   5.6089   8.3290   9.5365   9.5365  10.3770

          k = 0.2333 0.0000 0.0000 (  1575 PWs)   bands (ev):

    -5.6420   4.9953   5.4534   5.4534   8.2093   9.7685   9.7685  10.5257

          k = 0.2667 0.0000 0.0000 (  1575 PWs)   bands (ev):

    -5.5683   4.7221   5.2954   5.2954   8.0835  10.0142  10.0142  10.6012

          k = 0.3000 0.0000 0.0000 (  1575 PWs)   bands (ev):

    -5.4850   4.4406   5.1377   5.1377   7.9547  10.2709  10.2709  10.5743

          k = 0.3333 0.0000 0.0000 (  1579 PWs)   bands (ev):

    -5.3921   4.1530   4.9820   4.9820   7.8252  10.4473  10.5366  10.5366

          k = 0.3667 0.0000 0.0000 (  1591 PWs)   bands (ev):

    -5.2896   3.8608   4.8300   4.8300   7.6970  10.2497  10.8096  10.8096

          k = 0.4000 0.0000 0.0000 (  1599 PWs)   bands (ev):

    -5.1775   3.5653   4.6825   4.6825   7.5717  10.0120  11.0888  11.0888

          k = 0.4333 0.0000 0.0000 (  1587 PWs)   bands (ev):

    -5.0561   3.2674   4.5405   4.5405   7.4508   9.7554  11.3731  11.3731

          k = 0.4667 0.0000 0.0000 (  1587 PWs)   bands (ev):

    -4.9254   2.9677   4.4046   4.4046   7.3355   9.4927  11.6620  11.6620

          k = 0.5000 0.0000 0.0000 (  1587 PWs)   bands (ev):

    -4.7854   2.6668   4.2753   4.2753   7.2267   9.2316  11.9547  11.9547

          k = 0.5333 0.0000 0.0000 (  1596 PWs)   bands (ev):

    -4.6362   2.3652   4.1531   4.1531   7.1253   8.9766  12.2508  12.2508

          k = 0.5667 0.0000 0.0000 (  1596 PWs)   bands (ev):

    -4.4781   2.0634   4.0383   4.0383   7.0320   8.7310  12.5500  12.5500

          k = 0.6000 0.0000 0.0000 (  1588 PWs)   bands (ev):

    -4.3111   1.7618   3.9312   3.9312   6.9475   8.4966  12.8519  12.8519

          k = 0.6333 0.0000 0.0000 (  1580 PWs)   bands (ev):

    -4.1353   1.4609   3.8320   3.8320   6.8722   8.2748  13.1565  13.1565

          k = 0.6667 0.0000 0.0000 (  1580 PWs)   bands (ev):

    -3.9509   1.1610   3.7409   3.7409   6.8068   8.0665  13.4635  13.4635

          k = 0.7000 0.0000 0.0000 (  1584 PWs)   bands (ev):

    -3.7581   0.8627   3.6581   3.6581   6.7515   7.8722  13.7728  13.7728

          k = 0.7333 0.0000 0.0000 (  1600 PWs)   bands (ev):

    -3.5571   0.5664   3.5836   3.5836   6.7069   7.6923  14.0841  14.0841

          k = 0.7667 0.0000 0.0000 (  1600 PWs)   bands (ev):

    -3.3479   0.2725   3.5177   3.5177   6.6733   7.5270  14.3972  14.3972

          k = 0.8000 0.0000 0.0000 (  1604 PWs)   bands (ev):

    -3.1310  -0.0185   3.4604   3.4604   6.6510   7.3763  14.7117  14.7117

          k = 0.8333 0.0000 0.0000 (  1600 PWs)   bands (ev):

    -2.9064  -0.3061   3.4118   3.4118   6.6404   7.2401  15.0266  15.0266

          k = 0.8667 0.0000 0.0000 (  1604 PWs)   bands (ev):

    -2.6745  -0.5899   3.3720   3.3720   6.6417   7.1185  15.3402  15.3402

          k = 0.9000 0.0000 0.0000 (  1596 PWs)   bands (ev):

    -2.4354  -0.8695   3.3409   3.3409   6.6554   7.0111  15.6487  15.6487

          k = 0.9333 0.0000 0.0000 (  1596 PWs)   bands (ev):

    -2.1895  -1.1444   3.3187   3.3187   6.6816   6.9179  15.9423  15.9423

          k = 0.9667 0.0000 0.0000 (  1588 PWs)   bands (ev):

    -1.9372  -1.4142   3.3054   3.3054   6.7207   6.8386  16.1915  16.1915

          k = 1.0000 0.0000 0.0000 (  1588 PWs)   bands (ev):

    -1.6786  -1.6786   3.3009   3.3009   6.7730   6.7730  16.3056  16.3056

          k = 1.0000 0.0250 0.0250 (  1588 PWs)   bands (ev):

    -1.6807  -1.6727   3.2612   3.3054   6.7782   6.8307  16.2448  16.2723

          k = 1.0000 0.0500 0.0500 (  1588 PWs)   bands (ev):

    -1.6872  -1.6548   3.1501   3.3188   6.7937   6.9961  16.0789  16.1768

          k = 1.0000 0.0750 0.0750 (  1598 PWs)   bands (ev):

    -1.6990  -1.6250   2.9871   3.3411   6.8196   7.2502  15.8412  16.0300

          k = 1.0000 0.1000 0.1000 (  1596 PWs)   bands (ev):

    -1.7174  -1.5833   2.7942   3.3721   6.8558   7.5726  15.5608  15.8447

          k = 1.0000 0.1250 0.1250 (  1586 PWs)   bands (ev):

    -1.7443  -1.5297   2.5897   3.4119   6.9021   7.9464  15.2570  15.6325

          k = 1.0000 0.1500 0.1500 (  1594 PWs)   bands (ev):

    -1.7818  -1.4642   2.3880   3.4603   6.9584   8.3591  14.9413  15.4022

          k = 1.0000 0.1750 0.1750 (  1600 PWs)   bands (ev):

    -1.8326  -1.3869   2.1999   3.5170   7.0246   8.8021  14.6209  15.1605

          k = 1.0000 0.2000 0.2000 (  1596 PWs)   bands (ev):

    -1.8990  -1.2978   2.0336   3.5820   7.1004   9.2690  14.3001  14.8454

          k = 1.0000 0.2250 0.2250 (  1596 PWs)   bands (ev):

    -1.9832  -1.1969   1.8950   3.6548   7.1856   9.7550  13.9819  14.5100

          k = 1.0000 0.2500 0.2500 (  1580 PWs)   bands (ev):

    -2.0863  -1.0843   1.7881   3.7354   7.2799  10.2559  13.6683  14.1851

          k = 0.9667 0.2417 0.2417 (  1592 PWs)   bands (ev):

    -2.0908  -1.0856   1.8345   3.7118   7.2535  10.0933  13.6921  14.0569

          k = 0.9333 0.2333 0.2333 (  1593 PWs)   bands (ev):

    -2.1792  -1.0077   1.9104   3.6972   7.2400   9.9439  13.6047  13.8410

          k = 0.9000 0.2250 0.2250 (  1595 PWs)   bands (ev):

    -2.3285  -0.8691   2.0111   3.6918   7.2391   9.8087  13.4709  13.6196

          k = 0.8667 0.2167 0.2167 (  1595 PWs)   bands (ev):

    -2.5124  -0.6927   2.1328   3.6958   7.2506   9.6886  13.3204  13.3978

          k = 0.8333 0.2083 0.2083 (  1603 PWs)   bands (ev):

    -2.7139  -0.4924   2.2720   3.7092   7.2738   9.5846  13.1646  13.1767

          k = 0.8000 0.2000 0.2000 (  1603 PWs)   bands (ev):

    -2.9235  -0.2756   2.4259   3.7320   7.3078   9.4981  12.9570  13.0079

          k = 0.7667 0.1917 0.1917 (  1597 PWs)   bands (ev):

    -3.1355  -0.0459   2.5921   3.7644   7.3515   9.4306  12.7388  12.8518

          k = 0.7333 0.1833 0.1833 (  1598 PWs)   bands (ev):

    -3.3465   0.1943   2.7686   3.8062   7.4033   9.3839  12.5223  12.6967

          k = 0.7000 0.1750 0.1750 (  1598 PWs)   bands (ev):

    -3.5541   0.4440   2.9533   3.8576   7.4614   9.3599  12.3076  12.5418

          k = 0.6667 0.1667 0.1667 (  1596 PWs)   bands (ev):

    -3.7567   0.7023   3.1447   3.9184   7.5237   9.3608  12.0950  12.3861

          k = 0.6333 0.1583 0.1583 (  1592 PWs)   bands (ev):

    -3.9530   0.9686   3.3410   3.9886   7.5880   9.3884  11.8848  12.2282

          k = 0.6000 0.1500 0.1500 (  1592 PWs)   bands (ev):

    -4.1421   1.2425   3.5409   4.0680   7.6524   9.4440  11.6776  12.0663

          k = 0.5667 0.1417 0.1417 (  1594 PWs)   bands (ev):

    -4.3232   1.5237   3.7430   4.1565   7.7156   9.5276  11.4743  11.8985

          k = 0.5333 0.1333 0.1333 (  1592 PWs)   bands (ev):

    -4.4959   1.8119   3.9459   4.2539   7.7769   9.6376  11.2765  11.7230

          k = 0.5000 0.1250 0.1250 (  1588 PWs)   bands (ev):

    -4.6596   2.1066   4.1483   4.3600   7.8368   9.7691  11.0871  11.5381

          k = 0.4667 0.1167 0.1167 (  1588 PWs)   bands (ev):

    -4.8140   2.4076   4.3492   4.4745   7.8962   9.9123  10.9133  11.3428

          k = 0.4333 0.1083 0.1083 (  1585 PWs)   bands (ev):

    -4.9587   2.7143   4.5473   4.5970   7.9562  10.0440  10.7732  11.1368

          k = 0.4000 0.1000 0.1000 (  1583 PWs)   bands (ev):

    -5.0936   3.0263   4.7270   4.7414   8.0181  10.1111  10.7122  10.9206

          k = 0.3667 0.0917 0.0917 (  1583 PWs)   bands (ev):

    -5.2182   3.3427   4.8639   4.9304   8.0829  10.0644  10.6956  10.7676

          k = 0.3333 0.0833 0.0833 (  1577 PWs)   bands (ev):

    -5.3326   3.6626   5.0068   5.1131   8.1512   9.9424  10.4641  10.8794

          k = 0.3000 0.0750 0.0750 (  1573 PWs)   bands (ev):

    -5.4365   3.9848   5.1546   5.2880   8.2230   9.7939  10.2288  10.9626

          k = 0.2667 0.0667 0.0667 (  1576 PWs)   bands (ev):

    -5.5297   4.3076   5.3061   5.4538   8.2978   9.6393   9.9932  10.9515

          k = 0.2333 0.0583 0.0583 (  1570 PWs)   bands (ev):

    -5.6123   4.6287   5.4591   5.6087   8.3743   9.4861   9.7611  10.8220

          k = 0.2000 0.0500 0.0500 (  1568 PWs)   bands (ev):

    -5.6840   4.9444   5.6111   5.7509   8.4507   9.3381   9.5371  10.6065

          k = 0.1667 0.0417 0.0417 (  1569 PWs)   bands (ev):

    -5.7448   5.2499   5.7585   5.8782   8.5243   9.1972   9.3262  10.3534

          k = 0.1333 0.0333 0.0333 (  1573 PWs)   bands (ev):

    -5.7946   5.5374   5.8962   5.9880   8.5919   9.0647   9.1348  10.1002

          k = 0.1000 0.0250 0.0250 (  1579 PWs)   bands (ev):

    -5.8334   5.7954   6.0176   6.0777   8.6498   8.9426   8.9706   9.8747

          k = 0.0667 0.0167 0.0167 (  1592 PWs)   bands (ev):

    -5.8611   6.0068   6.1144   6.1444   8.6944   8.8368   8.8426   9.6988

          k = 0.0333 0.0083 0.0083 (  1613 PWs)   bands (ev):

    -5.8778   6.1489   6.1776   6.1857   8.7225   8.7605   8.7606   9.5882

          k = 0.0000 0.0000 0.0000 (  1591 PWs)   bands (ev):

    -5.8834   6.1996   6.1996   6.1996   8.7321   8.7321   8.7321   9.5507

     Writing all to output data dir ./tmp/silicon.save/ :
     XML data file, pseudopotentials, collected wavefunctions

     init_run     :      1.48s CPU      1.63s WALL (       1 calls)
     electrons    :    845.89s CPU    793.88s WALL (       1 calls)

     Called by init_run:
     wfcinit      :      0.00s CPU      0.00s WALL (       1 calls)
     wfcinit:atom :      0.04s CPU      0.05s WALL (      91 calls)
     wfcinit:wfcr :     33.85s CPU     32.45s WALL (      91 calls)
     potinit      :      0.27s CPU      0.27s WALL (       1 calls)
     hinit0       :      0.54s CPU      0.54s WALL (       1 calls)

     Called by electrons:
     c_bands      :    845.89s CPU    793.88s WALL (       1 calls)
     v_of_rho     :      0.03s CPU      0.03s WALL (       1 calls)
     v_h          :      0.01s CPU      0.01s WALL (       1 calls)
     v_xc         :      0.02s CPU      0.02s WALL (       1 calls)
     newd         :      0.51s CPU      0.65s WALL (       1 calls)
     PAW_pot      :      0.06s CPU      0.06s WALL (       1 calls)

     Called by c_bands:
     init_us_2    :      0.05s CPU      0.05s WALL (      91 calls)
     cegterg      :    811.25s CPU    760.67s WALL (     176 calls)

     Called by sum_band:

     Called by *egterg:
     cdiaghg      :      4.03s CPU      3.46s WALL (    2516 calls)
     cegterg:over :     58.52s CPU     46.56s WALL (    2425 calls)
     cegterg:upda :      7.23s CPU      6.58s WALL (    2425 calls)
     cegterg:last :     28.34s CPU     31.79s WALL (    1877 calls)
     h_psi        :    675.02s CPU    640.50s WALL (    2692 calls)
     s_psi        :     12.54s CPU     14.27s WALL (    2692 calls)
     g_psi        :      7.08s CPU      6.55s WALL (    2425 calls)

     Called by h_psi:
     h_psi:calbec :     92.04s CPU     80.74s WALL (    2692 calls)
     vloc_psi     :    564.04s CPU    539.07s WALL (    2692 calls)
     add_vuspsi   :     12.27s CPU     13.76s WALL (    2692 calls)

     General routines
     calbec       :     91.83s CPU     80.73s WALL (    2692 calls)
     fft          :      0.24s CPU      0.24s WALL (       6 calls)
     ffts         :      0.16s CPU      0.16s WALL (       1 calls)
     fftw         :    470.48s CPU    444.51s WALL (   31882 calls)
     interpolate  :      0.17s CPU      0.17s WALL (       1 calls)
     davcio       :      0.01s CPU      0.01s WALL (     182 calls)

     Parallel routines

     PAW routines
     PAW_pot      :      0.06s CPU      0.06s WALL (       1 calls)

     PWSCF        :  14m 8.41s CPU  13m17.15s WALL


   This run was terminated on:  15:29: 6  17Nov2025            

=------------------------------------------------------------------------------=
   JOB DONE.
=------------------------------------------------------------------------------=
