
     Program PWSCF v.7.4 starts on 17Nov2025 at 15:33:49 

     This program is part of the open-source Quantum ESPRESSO suite
     for quantum simulation of materials; please cite
         "P. Giannozzi et al., J. Phys.:Condens. Matter 21 395502 (2009);
         "P. Giannozzi et al., J. Phys.:Condens. Matter 29 465901 (2017);
         "P. Giannozzi et al., J. Chem. Phys. 152 154105 (2020);
          URL http://www.quantum-espresso.org", 
     in publications or presentations arising from this work. More details at
     http://www.quantum-espresso.org/quote

     Parallel version (MPI & OpenMP), running on       4 processor cores
     Number of MPI processes:                 2
     Threads/MPI process:                     2

     MPI processes distributed on     1 nodes
     28373 MiB available memory on the printing compute node when the environment starts

     Waiting for input...
     Reading input from standard input

     Current dimensions of program PWSCF are:
     Max number of different atomic species (ntypx) = 10
     Max number of k-points (npk) =  40000
     Max angular momentum in pseudopotentials (lmaxx) =  4
     file Si.pz-vbc.UPF: wavefunction(s)  3S renormalized

     R & G space division:  proc/nbgrp/npool/nimage =       2
     Subspace diagonalization in iterative solution of the eigenvalue problem:
     a serial algorithm will be used


     Parallelization info
     --------------------
     sticks:   dense  smooth     PW     G-vecs:    dense   smooth      PW
     Min         210     210     69                 2788     2788     533
     Max         211     211     70                 2789     2789     534
     Sum         421     421    139                 5577     5577    1067

     Using Slab Decomposition



     bravais-lattice index     =            2
     lattice parameter (alat)  =      10.0000  a.u.
     unit-cell volume          =     250.0000 (a.u.)^3
     number of atoms/cell      =            2
     number of atomic types    =            1
     number of electrons       =         8.00
     number of Kohn-Sham states=            4
     kinetic-energy cutoff     =      30.0000  Ry
     charge density cutoff     =     120.0000  Ry
     scf convergence threshold =      1.0E-06
     mixing beta               =       0.6000
     number of iterations used =            8  plain     mixing
     Exchange-correlation= SLA  PZ   NOGX NOGC
                           (   1   1   0   0   0   0   0)

     celldm(1)=  10.000000  celldm(2)=   0.000000  celldm(3)=   0.000000
     celldm(4)=   0.000000  celldm(5)=   0.000000  celldm(6)=   0.000000

     crystal axes: (cart. coord. in units of alat)
               a(1) = (  -0.500000   0.000000   0.500000 )  
               a(2) = (   0.000000   0.500000   0.500000 )  
               a(3) = (  -0.500000   0.500000   0.000000 )  

     reciprocal axes: (cart. coord. in units 2 pi/alat)
               b(1) = ( -1.000000 -1.000000  1.000000 )  
               b(2) = (  1.000000  1.000000  1.000000 )  
               b(3) = ( -1.000000  1.000000 -1.000000 )  


     PseudoPot. # 1 for Si read from file:
     ./Si.pz-vbc.UPF
     MD5 check sum: 0f64179521154464f50d54a56d9f4e6d
     Pseudo is Projector augmented-wave + core cor, Zval =  4.0
     Generated using "atomic" code by A. Dal Corso  v.5.0.2 svn rev. 9415
     Shape of augmentation charge: PSQ
     Using radial grid of 1141 points,  4 beta functions with: 
                l(1) =   0
                l(2) =   0
                l(3) =   1
                l(4) =   1
     Q(r) pseudized with 0 coefficients 


     atomic species   valence    mass     pseudopotential
     Si                4.00    28.08600     Si( 1.00)

     48 Sym. Ops., with inversion, found (24 have fractional translation)



   Cartesian axes

     site n.     atom                  positions (alat units)
         1        Si     tau(   1) = (   0.0000000   0.0000000   0.0000000  )
         2        Si     tau(   2) = (   0.2500000   0.2500000   0.2500000  )

     number of k points=    28
                       cart. coord. in units 2pi/alat
        k(    1) = (  -0.0833333   0.0833333   0.0833333), wk =   0.0185185
        k(    2) = (  -0.2500000   0.2500000  -0.0833333), wk =   0.0555556
        k(    3) = (  -0.4166667   0.4166667  -0.2500000), wk =   0.0555556
        k(    4) = (   0.4166667  -0.4166667   0.5833333), wk =   0.0555556
        k(    5) = (   0.2500000  -0.2500000   0.4166667), wk =   0.0555556
        k(    6) = (   0.0833333  -0.0833333   0.2500000), wk =   0.0555556
        k(    7) = (  -0.0833333   0.4166667   0.0833333), wk =   0.0555556
        k(    8) = (  -0.2500000   0.5833333  -0.0833333), wk =   0.1111111
        k(    9) = (   0.5833333  -0.2500000   0.7500000), wk =   0.1111111
        k(   10) = (   0.4166667  -0.0833333   0.5833333), wk =   0.1111111
        k(   11) = (   0.2500000   0.0833333   0.4166667), wk =   0.1111111
        k(   12) = (  -0.0833333   0.7500000   0.0833333), wk =   0.0555556
        k(   13) = (   0.7500000  -0.0833333   0.9166667), wk =   0.1111111
        k(   14) = (   0.5833333   0.0833333   0.7500000), wk =   0.1111111
        k(   15) = (   0.4166667   0.2500000   0.5833333), wk =   0.1111111
        k(   16) = (  -0.0833333  -0.9166667   0.0833333), wk =   0.0555556
        k(   17) = (  -0.2500000  -0.7500000  -0.0833333), wk =   0.1111111
        k(   18) = (  -0.0833333  -0.5833333   0.0833333), wk =   0.0555556
        k(   19) = (  -0.2500000   0.2500000   0.2500000), wk =   0.0185185
        k(   20) = (  -0.4166667   0.4166667   0.0833333), wk =   0.0555556
        k(   21) = (   0.4166667  -0.4166667   0.9166667), wk =   0.0555556
        k(   22) = (   0.2500000  -0.2500000   0.7500000), wk =   0.0555556
        k(   23) = (  -0.2500000   0.5833333   0.2500000), wk =   0.0555556
        k(   24) = (   0.5833333  -0.2500000   1.0833333), wk =   0.1111111
        k(   25) = (   0.4166667  -0.0833333   0.9166667), wk =   0.1111111
        k(   26) = (  -0.2500000  -1.0833333   0.2500000), wk =   0.0555556
        k(   27) = (  -0.4166667   0.4166667   0.4166667), wk =   0.0185185
        k(   28) = (   0.4166667  -0.4166667   1.2500000), wk =   0.0555556

     Dense  grid:     5577 G-vectors     FFT dimensions: (  32,  32,  32)

     Estimated max dynamical RAM per process >       5.15 MB

     Estimated total dynamical RAM >      10.30 MB

     Check: negative core charge=   -0.000003

     Initial potential from superposition of free atoms

     starting charge       7.9990, renormalised to       8.0000
     Starting wfcs are    8 randomized atomic wfcs
     Checking if some PAW data can be deallocated... 

     total cpu time spent up to now is        3.8 secs

     per-process dynamical memory:     9.5 Mb

     Self-consistent Calculation

     iteration #  1     ecut=    30.00 Ry     beta= 0.60
     Davidson diagonalization with overlap
     ethr =  1.00E-02,  avg # of iterations =  2.0

     Threshold (ethr) on eigenvalues was too large:
     Diagonalizing with lowered threshold

     Davidson diagonalization with overlap
     ethr =  7.51E-04,  avg # of iterations =  1.0

     total cpu time spent up to now is       16.3 secs

     total energy              =     -89.28310056 Ry
     estimated scf accuracy    <       0.06652143 Ry

     iteration #  2     ecut=    30.00 Ry     beta= 0.60
     Davidson diagonalization with overlap
     ethr =  8.32E-04,  avg # of iterations =  1.0

     total cpu time spent up to now is       21.5 secs

     total energy              =     -89.28496781 Ry
     estimated scf accuracy    <       0.00521487 Ry

     iteration #  3     ecut=    30.00 Ry     beta= 0.60
     Davidson diagonalization with overlap
     ethr =  6.52E-05,  avg # of iterations =  2.0

     total cpu time spent up to now is       27.8 secs

     total energy              =     -89.28581973 Ry
     estimated scf accuracy    <       0.00016186 Ry

     iteration #  4     ecut=    30.00 Ry     beta= 0.60
     Davidson diagonalization with overlap
     ethr =  2.02E-06,  avg # of iterations =  3.0

     total cpu time spent up to now is       38.4 secs

     total energy              =     -89.28588809 Ry
     estimated scf accuracy    <       0.00000982 Ry

     iteration #  5     ecut=    30.00 Ry     beta= 0.60
     Davidson diagonalization with overlap
     ethr =  1.23E-07,  avg # of iterations =  4.1

     total cpu time spent up to now is       50.6 secs

     End of self-consistent calculation

          k =-0.0833 0.0833 0.0833 (   700 PWs)   bands (ev):

    -5.5531   5.9929   6.7161   6.7161

          k =-0.2500 0.2500-0.0833 (   688 PWs)   bands (ev):

    -5.0408   3.8317   5.3697   6.5069

          k =-0.4167 0.4167-0.2500 (   690 PWs)   bands (ev):

    -3.8553   0.8705   4.9022   5.8250

          k = 0.4167-0.4167 0.5833 (   695 PWs)   bands (ev):

    -3.0711  -0.3871   4.9921   5.4087

          k = 0.2500-0.2500 0.4167 (   695 PWs)   bands (ev):

    -4.3054   1.7823   5.4571   5.5288

          k = 0.0833-0.0833 0.2500 (   687 PWs)   bands (ev):

    -5.2948   4.9038   6.0054   6.2433

          k =-0.0833 0.4167 0.0833 (   688 PWs)   bands (ev):

    -4.7824   3.7027   5.2177   5.2271

          k =-0.2500 0.5833-0.0833 (   689 PWs)   bands (ev):

    -3.8002   1.7645   3.7729   4.8045

          k = 0.5833-0.2500 0.7500 (   695 PWs)   bands (ev):

    -2.5627  -0.1730   3.1524   4.5484

          k = 0.4167-0.0833 0.5833 (   692 PWs)   bands (ev):

    -3.3673   1.0047   3.0701   5.0890

          k = 0.2500 0.0833 0.4167 (   692 PWs)   bands (ev):

    -4.5384   2.7769   4.5311   5.8337

          k =-0.0833 0.7500 0.0833 (   690 PWs)   bands (ev):

    -3.0390   0.9431   3.7237   4.1178

          k = 0.7500-0.0833 0.9167 (   695 PWs)   bands (ev):

    -1.7389  -0.4829   2.7738   3.6500

          k = 0.5833 0.0833 0.7500 (   698 PWs)   bands (ev):

    -2.1124  -0.1750   2.2544   4.2464

          k = 0.4167 0.2500 0.5833 (   694 PWs)   bands (ev):

    -3.2338   0.1916   4.1467   5.2036

          k =-0.0833-0.9167 0.0833 (   698 PWs)   bands (ev):

    -1.8508  -0.4983   3.4302   3.8883

          k =-0.2500-0.7500-0.0833 (   694 PWs)   bands (ev):

    -2.8500   0.6947   3.1457   4.0177

          k =-0.0833-0.5833 0.0833 (   692 PWs)   bands (ev):

    -4.0251   2.3783   4.3248   4.5683

          k =-0.2500 0.2500 0.2500 (   691 PWs)   bands (ev):

    -4.7930   2.7683   6.0618   6.0618

          k =-0.4167 0.4167 0.0833 (   688 PWs)   bands (ev):

    -4.0595   1.8365   3.7342   5.8898

          k = 0.4167-0.4167 0.9167 (   690 PWs)   bands (ev):

    -2.7711   0.3332   2.5144   5.0294

          k = 0.2500-0.2500 0.7500 (   697 PWs)   bands (ev):

    -2.7205   0.2507   3.0540   4.5024

          k =-0.2500 0.5833 0.2500 (   694 PWs)   bands (ev):

    -3.5985   0.9564   4.2868   4.9045

          k = 0.5833-0.2500 1.0833 (   695 PWs)   bands (ev):

    -2.5089   0.2548   2.6172   3.9995

          k = 0.4167-0.0833 0.9167 (   700 PWs)   bands (ev):

    -1.6050  -0.4909   2.4047   3.2581

          k =-0.2500-1.0833 0.2500 (   699 PWs)   bands (ev):

    -1.8288  -0.4200   2.2676   4.2933

          k =-0.4167 0.4167 0.4167 (   685 PWs)   bands (ev):

    -3.4864   0.0508   5.6583   5.6583

          k = 0.4167-0.4167 1.2500 (   694 PWs)   bands (ev):

    -2.8198  -0.2479   3.6797   5.1701

     highest occupied level (ev):     6.7161

!    total energy              =     -89.28589543 Ry
     total all-electron energy =     -1156.152023 Ry
     estimated scf accuracy    <       0.00000093 Ry

     The total energy is the sum of the following terms:
     one-electron contribution =       6.38039967 Ry
     hartree contribution      =       1.02651140 Ry
     xc contribution           =     -12.26397761 Ry
     ewald contribution        =     -17.23775378 Ry
     one-center paw contrib.   =     -67.19107511 Ry

     convergence has been achieved in   5 iterations

     Writing all to output data dir ./tmp/silicon.save/ :
     XML data file, charge density, pseudopotentials, collected wavefunctions

     init_run     :      3.24s CPU      3.62s WALL (       1 calls)
     electrons    :     42.92s CPU     46.86s WALL (       1 calls)

     Called by init_run:
     wfcinit      :      2.76s CPU      3.12s WALL (       1 calls)
     potinit      :      0.09s CPU      0.09s WALL (       1 calls)
     hinit0       :      0.37s CPU      0.38s WALL (       1 calls)

     Called by electrons:
     c_bands      :     37.80s CPU     41.21s WALL (       6 calls)
     sum_band     :      4.74s CPU      5.25s WALL (       6 calls)
     v_of_rho     :      0.09s CPU      0.09s WALL (       6 calls)
     newd         :      0.08s CPU      0.08s WALL (       6 calls)
     PAW_pot      :      0.24s CPU      0.26s WALL (       6 calls)
     mix_rho      :      0.03s CPU      0.03s WALL (       6 calls)

     Called by c_bands:
     init_us_2    :      0.07s CPU      0.07s WALL (     364 calls)
     cegterg      :     37.32s CPU     40.69s WALL (     168 calls)

     Called by *egterg:
     cdiaghg      :      0.26s CPU      0.34s WALL (     510 calls)
     h_psi        :     34.95s CPU     38.13s WALL (     566 calls)
     s_psi        :      0.25s CPU      0.25s WALL (     566 calls)
     g_psi        :      0.65s CPU      0.68s WALL (     370 calls)

     Called by h_psi:
     h_psi:calbec :      1.09s CPU      1.17s WALL (     566 calls)
     vloc_psi     :     32.85s CPU     35.93s WALL (     566 calls)
     add_vuspsi   :      0.03s CPU      0.03s WALL (     566 calls)

     General routines
     calbec       :      1.19s CPU      1.32s WALL (     734 calls)
     fft          :      0.19s CPU      0.20s WALL (      25 calls)
     ffts         :      0.04s CPU      0.05s WALL (       6 calls)
     fftw         :     25.52s CPU     28.48s WALL (    4912 calls)

     Parallel routines

     PWSCF        :     46.46s CPU     50.92s WALL


   This run was terminated on:  15:34:40  17Nov2025            

=------------------------------------------------------------------------------=
   JOB DONE.
=------------------------------------------------------------------------------=
