LAMMPS (2 Apr 2025)
OMP_NUM_THREADS environment is not set. Defaulting to 1 thread. (src/comm.cpp:99)
  using 1 OpenMP thread(s) per MPI task
# Define Variables
variable temp equal 1.5
variable rdf_bins equal 50
variable sim_run equal 3
variable cut_off equal 5.5

# Define the Units
units lj
atom_style atomic

# Create a Simulation Box
read_data Ar.data
Reading data file ...
  orthogonal box = (0 0 0) to (42.08 42.08 42.08)
  1 by 1 by 1 MPI processor grid
  reading atoms ...
  2048 atoms
  read_data CPU = 0.063 seconds

# Assign the Group to Argon and Assign it's mass
group Ar type 1
2048 atoms in group Ar
mass 1 1.0

# Define the Potential of the Simulation
pair_style lj/cut ${cut_off}
pair_style lj/cut 5.5
pair_coeff 1 1 1.0 1.0

# Set the initial velocity
velocity all create ${temp} 54343
velocity all create 1.5 54343

# Define the Thermodynamics Output
thermo 100
thermo_style custom step temp press vol etotal
timestep 0.005

# Compute the RDF
compute RDF all rdf ${rdf_bins}
compute RDF all rdf 50

# Run the Simulation
fix integrate1 all npt temp ${temp} ${temp} 1 iso 5 5 1
fix integrate1 all npt temp 1.5 ${temp} 1 iso 5 5 1
fix integrate1 all npt temp 1.5 1.5 1 iso 5 5 1
fix 1 all ave/time 100 10 1000 c_RDF[*] file RDF_Pre_Sim${sim_run}.data mode vector
fix 1 all ave/time 100 10 1000 c_RDF[*] file RDF_Pre_Sim3.data mode vector


# Run the Simulation
run 20000
Generated 0 of 0 mixed pair_coeff terms from geometric mixing rule
Neighbor list info ...
  update: every = 1 steps, delay = 0 steps, check = yes
  max neighbors/atom: 2000, page size: 100000
  master list distance cutoff = 5.8
  ghost atom cutoff = 5.8
  binsize = 2.9, bins = 15 15 15
  2 neighbor lists, perpetual/occasional/extra = 1 1 0
  (1) pair lj/cut, perpetual
      attributes: half, newton on
      pair build: half/bin/atomonly/newton
      stencil: half/bin/3d
      bin: standard
  (2) compute rdf, occasional, copy from (1)
      attributes: half, newton on
      pair build: copy
      stencil: none
      bin: none
Per MPI rank memory allocation (min/avg/max) = 3.197 | 3.197 | 3.197 Mbytes
   Step          Temp          Press          Volume         TotEng    
         0   1.5            0.040678936    74512.167      2.2392728    
       100   2.9641589      0.2511151      26810.194      4.1936709    
       200   4.1305295      0.59287538     15262.432      5.4989462    
       300   4.5876837      1.0592297      10311.83       5.8666777    
       400   4.5836402      1.5846729      7687.3823      5.5393337    
       500   4.3518395      2.0261771      6112.3164      4.8245897    
       600   4.0569888      2.3748747      5091.3209      3.9370906    
       700   3.6966788      2.7534123      4379.1245      3.0191227    
       800   3.3467068      3.2278018      3868.523       2.1465559    
       900   3.0595752      3.503155       3495.592       1.3302229    
      1000   2.7729369      3.8050518      3230.7426      0.5792849    
      1100   2.4870422      4.306305       3017.1723     -0.083750343  
      1200   2.3247362      4.352084       2859.8335     -0.69050016   
      1300   2.1397228      4.3963592      2740.747      -1.2103302    
      1400   1.933577       4.7368895      2646.9127     -1.6703676    
      1500   1.8522211      4.538094       2571.4146     -2.0572093    
      1600   1.7050996      4.8644686      2508.1083     -2.392693     
      1700   1.628497       4.8998411      2457.6757     -2.6748124    
      1800   1.5719046      4.8241318      2414.6544     -2.9018273    
      1900   1.4759765      4.977672       2385.9525     -3.0957487    
      2000   1.4391681      5.0054623      2362.9626     -3.2388933    
      2100   1.4200375      5.1452355      2340.9172     -3.3208666    
      2200   1.3843167      5.1453364      2335.9247     -3.3807448    
      2300   1.4035954      4.95736        2338.1175     -3.390682     
      2400   1.4126032      4.9508873      2345.9069     -3.3462997    
      2500   1.446085       5.149491       2352.1326     -3.2412351    
      2600   1.497885       4.9645176      2368.2036     -3.1364419    
      2700   1.558372       4.8480952      2385.3352     -3.0384056    
      2800   1.5324901      5.1362404      2396.2468     -2.9469393    
      2900   1.546621       4.957265       2415.4352     -2.9113241    
      3000   1.5761024      5.063739       2410.0263     -2.8578552    
      3100   1.5995788      4.9727083      2407.8256     -2.8666677    
      3200   1.5390335      4.9308887      2409.5791     -2.9381821    
      3300   1.5486231      4.9793601      2392.3449     -2.9855301    
      3400   1.4682471      5.0364166      2387.3098     -3.082637     
      3500   1.46864        4.94818        2375.6381     -3.1549572    
      3600   1.4766913      4.9718407      2361.2441     -3.1962284    
      3700   1.461692       5.1494807      2352.9644     -3.2178177    
      3800   1.4681027      4.9838964      2356.7943     -3.2300671    
      3900   1.4756552      4.8967749      2361.7497     -3.2062048    
      4000   1.4600549      4.8232621      2377.071      -3.1855574    
      4100   1.4826108      5.0115162      2381.0723     -3.1179739    
      4200   1.5025304      5.1247109      2385.4228     -3.0435592    
      4300   1.5552787      5.1864042      2383.3475     -2.9672297    
      4400   1.561509       4.9895618      2398.4969     -2.9544976    
     4500   1.5372149      5.2998628      2402.0369     -2.8508867    
      4600   1.5381398      4.992869       2404.2924     -2.9028508    
      4700   1.4937249      5.0892844      2399.7519     -2.9582354    
      4800   1.5022187      4.8345589      2399.6066     -3.0261675    
      4900   1.4638869      5.2841297      2378.6084     -3.0343027    
      5000   1.4973025      5.129125       2369.9779     -3.055194     
      5100   1.4421061      5.1641291      2378.3077     -3.0995392    
      5200   1.4387479      4.8830036      2389.6722     -3.1260461    
      5300   1.4925327      4.9743481      2376.9045     -3.067517     
      5400   1.4905444      4.9237983      2386.846      -3.0579259    
      5500   1.5127202      5.2847055      2376.3682     -2.9791182    
      5600   1.5224821      5.2167891      2389.1971     -2.9541021    
      5700   1.523137       4.8714276      2404.4616     -2.9472345    
      5800   1.5479578      4.8922331      2403.5806     -2.9185677    
      5900   1.5208905      4.7828821      2414.1123     -2.9398205    
      6000   1.5416523      4.6960086      2409.0759     -2.9454975    
      6100   1.4861618      4.7436741      2412.6924     -2.9987461    
      6200   1.4910703      4.7908241      2399.7659     -3.0191091    
      6300   1.5033047      5.0041617      2384.9066     -3.0267739    
      6400   1.4761411      5.3932012      2373.1521     -3.0293682    
      6500   1.4800038      5.3927957      2367.8796     -3.0312819    
      6600   1.4682227      4.7033142      2394.0502     -3.0948467    
      6700   1.4767205      4.9935633      2387.0241     -3.051189     
      6800   1.4813431      5.1820171      2385.2635     -3.0108133    
      6900   1.5179102      5.2779694      2380.2476     -2.9599636    
      7000   1.5022676      5.1352573      2395.9322     -2.9659609    
      7100   1.5251531      5.0185535      2395.0198     -2.9400296    
      7200   1.5534519      4.9085756      2395.8947     -2.9340288    
      7300   1.4950369      4.9731434      2402.6395     -2.9602634    
      7400   1.5394093      5.12892        2387.7207     -2.942365     
      7500   1.4832284      4.9416848      2400.4296     -3.0007596    
      7600   1.4749747      4.8097275      2404.6012     -3.0356481    
      7700   1.4834536      4.7246715      2401.7961     -3.0497701    
      7800   1.4932115      5.065055       2386.7846     -3.0200146    
      7900   1.5285393      5.3006782      2372.7208     -2.9814099    
      8000   1.5123982      5.2324509      2379.7673     -2.9910099    
      8100   1.4942557      5.0000859      2391.9637     -3.0107839    
      8200   1.5145133      4.7411695      2396.1636     -3.0139589    
      8300   1.5084066      4.7394568      2400.5786     -3.0248403    
      8400   1.5232925      5.1337932      2380.5648     -2.9731263    
      8500   1.5203206      5.1275256      2384.3839     -2.9832673    
      8600   1.472391       4.9507603      2400.0696     -3.0239966    
      8700   1.4735035      4.636679       2409.3329     -3.0438543    
      8800   1.4964034      4.8234255      2399.0538     -3.0226133    
      8900   1.5125263      4.9850159      2385.6888     -3.0029854    
      9000   1.4734006      5.1230744      2388.8395     -3.018747     
      9100   1.5115887      4.890226       2389.3654     -3.0150208    
      9200   1.4771418      4.8988343      2399.6324     -3.0332149    
      9300   1.5120329      4.8039798      2396.527      -3.0158993    
      9400   1.5384772      4.9986382      2382.9883     -2.9827538    
      9500   1.4982652      5.2240754      2380.6395     -2.9861863    
      9600   1.4953066      5.0873276      2386.287      -3.0126887    
      9700   1.5027048      4.8303397      2391.9514     -3.0301189    
      9800   1.4621136      4.6293077      2408.1774     -3.0683838    
      9900   1.4733908      4.8771577      2398.6876     -3.0345884    
     10000   1.5093194      4.9065536      2392.7722     -3.0137871    
     10100   1.519571       5.3538525      2376.3728     -2.9676717    
     10200   1.5120921      5.2390504      2381.6839     -2.9773546    
     10300   1.5171726      5.0804916      2385.1529     -2.9806948    
     10400   1.5291122      4.9187378      2388.8962     -2.992755     
     10500   1.5167277      4.9100034      2390.3853     -3.0052544    
     10600   1.4894799      5.0846091      2388.5939     -3.0130358    
     10700   1.4942034      5.153008       2383.6422     -3.012223     
     10800   1.4607319      4.9788353      2396.7148     -3.047958     
     10900   1.5144045      4.8566016      2387.9187     -3.0149759    
     11000   1.4892505      4.8342429      2397.7806     -3.0322907    
     11100   1.4675296      4.8370586      2403.5385     -3.0421592    
     11200   1.5081678      4.8822965      2393.7264     -3.0095999    
     11300   1.4962993      5.0130586      2393.0713     -3.0028692    
     11400   1.4998277      5.2045109      2385.9512     -2.9747763    
     11500   1.4872265      4.905369       2402.971      -3.0079843    
     11600   1.4871176      4.9557693      2398.2856     -2.9930585    
     11700   1.5189608      4.979211       2391.0537     -2.9787679    
     11800   1.5203402      4.9308908      2391.11       -2.9915244    
     11900   1.5082482      5.2067823      2381.7577     -2.9855963    
     12000   1.4816786      5.2242535      2383.8683     -3.0128053    
     12100   1.5203067      5.1127642      2375.8783     -3.0059242    
     12200   1.4449361      4.9712042      2397.3007     -3.0695405    
     12300   1.4469511      4.6702777      2406.3033     -3.0937204    
     12400   1.4914714      4.8993924      2391.0005     -3.0465841    
     12500   1.536279       5.2565182      2371.9366     -2.9760521    
     12600   1.5335197      4.9418852      2385.1641     -2.9873257    
     12700   1.5346848      4.918757       2390.6967     -2.9836006    
     12800   1.492562       4.9986742      2398.508      -2.9882077    
     12900   1.5063318      4.9708937      2399.8593     -2.9704526    
     13000   1.4972126      5.0006962      2403.5775     -2.9653259    
     13100   1.513468       4.9520737      2402.1606     -2.9605104    
     13200   1.5190892      5.0930949      2394.1005     -2.9490051    
     13300   1.5479604      5.3607127      2375.8276     -2.919792     
     13400   1.517201       5.0839692      2388.2425     -2.9800741    

     13500   1.4924428      4.8772387      2454.0504     -2.5892567    
     13600   1.5067388      4.9358406      2440.9523     -2.6046849    
     13700   1.4902504      4.9383742      2437.4354     -2.64358      
     13800   1.4735356      5.0254119      2432.9466     -2.6720544    
     13900   1.4776495      5.2017631      2421.4071     -2.6707677    
     14000   1.4615079      5.1581568      2425.2518     -2.6928054    
     14100   1.4690064      5.1285646      2424.0421     -2.6755069    
     14200   1.5140281      4.6631607      2437.9367     -2.6686196    
     14300   1.5214694      4.8478756      2437.434      -2.6201651    
     14400   1.4948546      5.0602168      2440.5555     -2.5875477    
     14500   1.5196589      5.0256408      2444.0885     -2.5683488    
     14600   1.5137409      4.9725313      2452.383      -2.5664045    
     14700   1.4862761      4.7777958      2466.0058     -2.5884064    
     14800   1.5479382      5.0431731      2442.2015     -2.5265134    
     14900   1.5545634      5.2421517      2434.7016     -2.5027619    
     15000   1.4849804      4.9073304      2460.9702     -2.5787133    
     15100   1.5039365      4.734071       2457.8269     -2.594284     
     15200   1.5021633      5.0325619      2443.2509     -2.5947992    
     15300   1.4872673      5.2528234      2432.0643     -2.5978928    
     15400   1.4836774      5.0671552      2435.7213     -2.6266294    
     15500   1.49001        4.6981484      2447.3081     -2.6583354    
     15600   1.4288876      4.7032015      2463.1767     -2.6891615    
     15700   1.521172       4.8678241      2436.7778     -2.6133169    
     15800   1.4867381      5.1412217      2438.045      -2.6000639    
     15900   1.4701366      5.1017999      2449.0844     -2.6038271    
     16000   1.5113397      5.0571579      2444.8147     -2.5656459    
     16100   1.5378982      5.0574271      2442.6804     -2.5397811    
     16200   1.5561779      4.9522873      2442.3645     -2.5347112    
     16300   1.4714719      5.0099004      2458.0227     -2.5873092    
     16400   1.4696039      4.7236085      2463.8603     -2.6284103    
     16500   1.5307961      5.3157751      2423.7512     -2.5566885    
     16600   1.4935981      5.348327       2426.7172     -2.5889566    
     16700   1.492268       5.0369474      2433.2805     -2.6362051    
     16800   1.4699457      5.2840749      2425.8799     -2.6389402    
     16900   1.4854348      5.1475915      2426.8528     -2.6443592    
     17000   1.4565472      4.7950623      2448.8176     -2.6819964    
     17100   1.4911127      4.8529951      2446.2555     -2.6413392    
     17200   1.5150197      5.0999075      2436.5711     -2.5857183    
     17300   1.5477957      4.83675        2439.4566     -2.5636888    
     17400   1.4963678      5.1252407      2446.8945     -2.5619892    
     17500   1.495265       4.8176482      2459.1997     -2.5758771    
     17600   1.5171418      4.708853       2463.3429     -2.5757982    
     17700   1.5559245      4.9721897      2444.3965     -2.5291739    
     17800   1.5044613      4.9993035      2453.6967     -2.5673047    
     17900   1.5460311      5.3266444      2426.1692     -2.5232909    
     18000   1.5145509      5.1221782      2435.1705     -2.5779064    
     18100   1.4618726      4.6917137      2454.5292     -2.6635874    
     18200   1.4479794      4.7501189      2453.4817     -2.6924102    
     18300   1.4745467      5.0540732      2432.4567     -2.6619988    
     18400   1.5085857      4.9006761      2429.3578     -2.6566718    
     18500   1.5072684      4.9568406      2432.2968     -2.6436424    
     18600   1.473527       5.3061479      2433.0767     -2.6172763    
     18700   1.512707       5.1578993      2434.5294     -2.5891774    
     18800   1.5213976      5.0110407      2441.6331     -2.5783377    
     18900   1.4796192      4.8636712      2457.8496     -2.6006076    
     19000   1.5219285      4.7417318      2454.0323     -2.5860349    
     19100   1.509223       5.1454604      2441.6662     -2.5677935    
     19200   1.5102905      5.1936146      2435.1811     -2.5733503    
     19300   1.5332532      4.9764787      2433.6091     -2.5921099    
     19400   1.4578801      4.7481726      2454.7231     -2.6664549    
     19500   1.4560757      5.051936       2441.5517     -2.6544819    
     19600   1.5015773      5.1212492      2427.129      -2.626893     
     19700   1.4847255      5.2572714      2426.3219     -2.6210781    
     19800   1.4822392      5.0244121      2437.1862     -2.6357434    
     19900   1.485439       5.0702549      2436.9798     -2.6136834    
     20000   1.4636102      5.044266       2448.1381     -2.6126511    
Loop time of 77.0691 on 1 procs for 20000 steps with 2048 atoms

Performance: 112107.199 tau/day, 259.507 timesteps/s, 531.471 katom-step/s
99.9% CPU use with 1 MPI tasks x 1 OpenMP threads

MPI task timing breakdown:
Section |  min time  |  avg time  |  max time  |%varavg| %total
---------------------------------------------------------------
Pair    | 50.332     | 50.332     | 50.332     |   0.0 | 65.31
Neigh   | 20.699     | 20.699     | 20.699     |   0.0 | 26.86
Comm    | 1.5935     | 1.5935     | 1.5935     |   0.0 |  2.07
Output  | 0.005495   | 0.005495   | 0.005495   |   0.0 |  0.01
Modify  | 3.8452     | 3.8452     | 3.8452     |   0.0 |  4.99
Other   |            | 0.5945     |            |       |  0.77

Nlocal:           2048 ave        2048 max        2048 min
Histogram: 1 0 0 0 0 0 0 0 0 0
Nghost:           3744 ave        3744 max        3744 min
Histogram: 1 0 0 0 0 0 0 0 0 0
Neighs:          76801 ave       76801 max       76801 min
Histogram: 1 0 0 0 0 0 0 0 0 0

Total # of neighbors = 76801
Ave neighs/atom = 37.500488
Neighbor list builds = 3536
Dangerous builds = 76
unfix integrate1

# Output the RDF Data to the Dump Folder
fix integrate2 all nve
fix 1 all ave/time 100 10 1000 c_RDF[*] file RDF_Sim${sim_run}.data mode vector
fix 1 all ave/time 100 10 1000 c_RDF[*] file RDF_Sim1.data mode vector

# Dump the files for the positions of the Atoms every 100 Frames
dump            myDump1 all custom 100 Dumpfiles/_*.dump id type element x y z vx vy vz fx fy fz
dump_modify 	myDump1 element Ar

# Run the Simulation
run 80000
Generated 0 of 0 mixed pair_coeff terms from geometric mixing rule
Per MPI rank memory allocation (min/avg/max) = 3.762 | 3.762 | 3.762 Mbytes
   Step          Temp          Press          Volume         TotEng    
     20000   1.4636102      5.044266       2448.1381     -2.6126511    
     20100   1.5043292      4.8716221      2448.1381     -2.6123284    
     20200   1.4791878      4.9677809      2448.1381     -2.6135001    
     20300   1.492769       4.9228628      2448.1381     -2.6118364    
     20400   1.5013368      4.8392267      2448.1381     -2.6129171    
     20500   1.4879022      4.9040457      2448.1381     -2.6129058    
     20600   1.4733465      5.0449415      2448.1381     -2.6125042    
     20700   1.5039696      4.8180365      2448.1381     -2.6131698    
     20800   1.5005804      4.8526984      2448.1381     -2.6129669    
     20900   1.4579458      5.1254261      2448.1381     -2.6127827    
     21000   1.4993565      4.8563363      2448.1381     -2.6129774    
     21100   1.4666869      5.0419599      2448.1381     -2.6123823    
     21200   1.4603806      5.1186173      2448.1381     -2.6114256    
     21300   1.4999186      4.8809758      2448.1381     -2.6128424    
     21400   1.4831371      4.9253628      2448.1381     -2.6128723    
     21500   1.4793818      5.0080036      2448.1381     -2.6127958    
     21600   1.4968553      4.909453       2448.1381     -2.6122943    
     21700   1.5086496      4.8516904      2448.1381     -2.6120896    
     21800   1.4518229      5.1546766      2448.1381     -2.6131037    
     21900   1.4704977      5.0656261      2448.1381     -2.6115483    
     22000   1.5039235      4.9005514      2448.1381     -2.6135874    
     22100   1.4944781      4.8881922      2448.1381     -2.6136433    
     22200   1.4731342      5.0054337      2448.1381     -2.6127246    
     22300   1.5113848      4.7540853      2448.1381     -2.6138027    
     22400   1.4698877      5.06342        2448.1381     -2.6120045    
     22500   1.4798391      4.9163233      2448.1381     -2.6122777    
     22600   1.4855059      4.9745368      2448.1381     -2.6125873    
     22700   1.5237745      4.7151133      2448.1381     -2.6132402    
     22800   1.514715       4.7938777      2448.1381     -2.6125018    
     22900   1.4744589      5.0275715      2448.1381     -2.6121181    
     23000   1.501503       4.8879102      2448.1381     -2.6119131    
     23100   1.49416        4.8572766      2448.1381     -2.6125618    
     23200   1.4695222      5.0061511      2448.1381     -2.6117263    
     23300   1.480695       4.9797677      2448.1381     -2.6122925    
     23400   1.4871971      4.9495886      2448.1381     -2.6120486    
     23500   1.4960207      4.8641133      2448.1381     -2.6121341    
     23600   1.5004651      4.8682321      2448.1381     -2.6138428    
     23700   1.5160198      4.7326958      2448.1381     -2.6132351    
     23800   1.4841986      4.967652       2448.1381     -2.611084     
     23900   1.4856202      4.9441186      2448.1381     -2.6141873    
     24000   1.4905714      4.8640085      2448.1381     -2.6123992    
     24100   1.4838133      4.9033055      2448.1381     -2.6137339    
     24200   1.4556809      5.1040012      2448.1381     -2.6129375    
     24300   1.4800842      4.9605071      2448.1381     -2.6117535    
     24400   1.5019448      4.8699968      2448.1381     -2.6132507    
     24500   1.4803745      5.0032849      2448.1381     -2.6138144    
     24600   1.4749112      4.9894551      2448.1381     -2.6126991    
     24700   1.4910464      4.9330678      2448.1381     -2.6132957    
     24800   1.4680452      5.0592992      2448.1381     -2.6125113    
     24900   1.4780225      4.9878856      2448.1381     -2.6124066    
     25000   1.4868377      4.9979362      2448.1381     -2.6128425    
     25100   1.4861015      4.9170894      2448.1381     -2.6112115    
     25200   1.5012372      4.8510657      2448.1381     -2.6124766    
     25300   1.4840309      5.062421       2448.1381     -2.6113253    
     25400   1.4935979      4.9229235      2448.1381     -2.6123904    
     25500   1.485725       4.946915       2448.1381     -2.6124727    
     25600   1.4942582      4.8867293      2448.1381     -2.6135616    
     25700   1.5137308      4.774458       2448.1381     -2.6122287    
     25800   1.4849899      4.9736451      2448.1381     -2.6123216    
     25900   1.4916319      4.8888779      2448.1381     -2.6127424    
     26000   1.4667241      5.058399       2448.1381     -2.6130709    
     26100   1.497647       4.9330529      2448.1381     -2.6122103    
     26200   1.4876751      4.9616795      2448.1381     -2.612406     
     26300   1.4863153      4.8887832      2448.1381     -2.6130306    
     26400   1.4914603      4.9274322      2448.1381     -2.6127141    
     26500   1.474269       5.0408185      2448.1381     -2.6126611    
     26600   1.476676       4.9864905      2448.1381     -2.6125992    
     26700   1.4904059      4.8968005      2448.1381     -2.6135962    
     26800   1.4944945      4.8745599      2448.1381     -2.6123848    
     26900   1.4832586      4.963319       2448.1381     -2.6130065    
     27000   1.4523344      5.1999714      2448.1381     -2.6124774    
     27100   1.4683307      5.0727943      2448.1381     -2.6126538    
     27200   1.4878273      4.9743886      2448.1381     -2.6123016    
     27300   1.4920457      4.9165433      2448.1381     -2.6129128    
     27400   1.5102032      4.8196256      2448.1381     -2.6136529    
     27500   1.4794421      4.9751232      2448.1381     -2.6123955    
     27600   1.4934092      4.9046521      2448.1381     -2.6129805    
     27700   1.4724961      5.0747378      2448.1381     -2.6112748    
     27800   1.5016107      4.8601691      2448.1381     -2.6106169    
     27900   1.4714591      5.1265442      2448.1381     -2.6121379    
     28000   1.4911135      4.8579354      2448.1381     -2.6117427    
     28100   1.5189519      4.7420972      2448.1381     -2.6127833    
     28200   1.5047095      4.7894459      2448.1381     -2.6135921    
     28300   1.511647       4.8000678      2448.1381     -2.6132616    
     28400   1.4670183      5.0659042      2448.1381     -2.6116264    
     28500   1.4892131      4.9493077      2448.1381     -2.6128646    
     28600   1.5006277      4.8303299      2448.1381     -2.612672     
     28700   1.4786812      4.9972065      2448.1381     -2.613165     
     28800   1.4769775      5.0378257      2448.1381     -2.6127958    
     28900   1.5085305      4.8214243      2448.1381     -2.6129298    
     29000   1.5126043      4.7727324      2448.1381     -2.6134456    
     29100   1.5034396      4.8861498      2448.1381     -2.6132838    
     29200   1.520061       4.7619858      2448.1381     -2.612676     
     29300   1.4874822      5.0053106      2448.1381     -2.6133219    
     29400   1.4906358      4.9173643      2448.1381     -2.6133989    
     29500   1.4863456      4.9947321      2448.1381     -2.6127768    
     29600   1.4907933      4.9345151      2448.1381     -2.612228     
     29700   1.4875685      4.9393643      2448.1381     -2.6126222    
     29800   1.4905781      4.8881198      2448.1381     -2.611837     
     29900   1.5114766      4.8144211      2448.1381     -2.6120463    
     30000   1.4952836      4.9360858      2448.1381     -2.612978     
     30100   1.4820728      4.9933834      2448.1381     -2.6118766    
     30200   1.520753       4.766327       2448.1381     -2.6119794    
     30300   1.5044553      4.8627486      2448.1381     -2.6124908    
     30400   1.5405998      4.5774239      2448.1381     -2.6133399    
     30500   1.4845038      4.9630481      2448.1381     -2.6116552    
     30600   1.4954958      4.8708891      2448.1381     -2.6116145    
     30700   1.4931736      4.8723345      2448.1381     -2.6133542    
     30800   1.4930198      4.8863859      2448.1381     -2.6121183    
     30900   1.4733954      5.0292363      2448.1381     -2.6126844    
     31000   1.4658636      5.0951931      2448.1381     -2.6116267    
     31100   1.4794342      4.9421672      2448.1381     -2.6127656    
     31200   1.494577       4.9023927      2448.1381     -2.6125642    
     31300   1.5242764      4.7179805      2448.1381     -2.6130916    
     31400   1.4743654      5.0560437      2448.1381     -2.6119819    
     31500   1.509834       4.8016051      2448.1381     -2.6130099    
     31600   1.4838974      4.9477734      2448.1381     -2.6126338    
     31700   1.492993       4.8863733      2448.1381     -2.6124187    
     31800   1.47072        4.9961735      2448.1381     -2.6124319    
     31900   1.5047513      4.8369633      2448.1381     -2.61285      
     32000   1.4812378      4.9190317      2448.1381     -2.6123064    
     32100   1.4802853      4.9599788      2448.1381     -2.6120861    
     32200   1.4945518      4.9148761      2448.1381     -2.6127684    
     32300   1.4729128      4.9708046      2448.1381     -2.6129843    
     32400   1.5027222      4.8294296      2448.1381     -2.6127589    
     32500   1.4796074      4.9939164      2448.1381     -2.6126154    
     32600   1.5062411      4.8203706      2448.1381     -2.6122943    
     32700   1.4909336      4.8946788      2448.1381     -2.6116974    
     32800   1.5186601      4.7805257      2448.1381     -2.6130142    
     32900   1.5141553      4.7580768      2448.1381     -2.6127657    
     33000   1.484869       4.9476849      2448.1381     -2.6133502    
     33100   1.4965208      4.8688704      2448.1381     -2.6126465    
     33200   1.4759787      5.0273186      2448.1381     -2.6115462    
     33300   1.4923569      4.9111393      2448.1381     -2.6130776    
     33400   1.475162       4.9992181      2448.1381     -2.6117164    
     33500   1.5107424      4.7250633      2448.1381     -2.6121302    
     33600   1.5052502      4.8628952      2448.1381     -2.6131791    
     33700   1.4906343      4.850997       2448.1381     -2.6131631    
     33800   1.4703819      5.0583724      2448.1381     -2.6117838    
     33900   1.4847789      4.9528525      2448.1381     -2.6121556    
     34000   1.4805125      4.9468529      2448.1381     -2.6117098    
     34100   1.4797622      5.0064732      2448.1381     -2.6122274    
     34200   1.5059405      4.7647781      2448.1381     -2.6125667    
     34300   1.4984584      4.8987254      2448.1381     -2.6119512    
     34400   1.4899833      4.9804272      2448.1381     -2.6117662    
     34500   1.527434       4.6680377      2448.1381     -2.6132216    
     34600   1.4728273      4.9879798      2448.1381     -2.612603     
     34700   1.4762588      5.0240231      2448.1381     -2.6120784    
     34800   1.4791166      4.9545305      2448.1381     -2.6123204    
     34900   1.4763081      5.0055149      2448.1381     -2.6131428    
     35000   1.512392       4.794049       2448.1381     -2.6130284    
     35100   1.4603313      5.1272656      2448.1381     -2.611631     
     35200   1.4903399      4.9369646      2448.1381     -2.6127574    
     35300   1.4946042      4.9386527      2448.1381     -2.612669     
     35400   1.4981086      4.9037556      2448.1381     -2.6122518    
     35500   1.4982869      4.9333088      2448.1381     -2.6123004    
     35600   1.503317       4.8432357      2448.1381     -2.6124988    
     35700   1.4760491      4.9921779      2448.1381     -2.6133986    
     35800   1.5177876      4.8095408      2448.1381     -2.6119827    
     35900   1.5012759      4.9384365      2448.1381     -2.6122601    
     36000   1.4810281      4.9924707      2448.1381     -2.6121809    
     36100   1.4855112      4.9579114      2448.1381     -2.6134581    
     36200   1.5390594      4.6274824      2448.1381     -2.6125036    
     36300   1.4965733      4.9237696      2448.1381     -2.6122274    
     36400   1.4864301      4.9978738      2448.1381     -2.6115977    
     36500   1.4908144      4.874649       2448.1381     -2.6128618    
     36600   1.5059004      4.7904164      2448.1381     -2.6134438    
     36700   1.5044262      4.8254104      2448.1381     -2.6133563    
     36800   1.4743759      5.012386       2448.1381     -2.611683     
     36900   1.4869977      4.9113444      2448.1381     -2.6137965    
     37000   1.4779233      5.0483194      2448.1381     -2.6118936    
     37100   1.4830826      4.9457579      2448.1381     -2.6129754    
     37200   1.4821088      4.9841363      2448.1381     -2.6135344    
     37300   1.5131828      4.7564954      2448.1381     -2.6140846    
     37400   1.4730689      5.0151387      2448.1381     -2.6136731    
     37500   1.4748743      4.9973478      2448.1381     -2.611661     
     37600   1.5137968      4.7863824      2448.1381     -2.6124032    
     37700   1.5125536      4.8048245      2448.1381     -2.6129865    
     37800   1.4465598      5.180026       2448.1381     -2.6114661    
     37900   1.5112872      4.8541373      2448.1381     -2.6110521    
     38000   1.4526117      5.1785547      2448.1381     -2.6127544    
     38100   1.4586056      5.1134389      2448.1381     -2.612097     
     38200   1.5027326      4.8070358      2448.1381     -2.6131621    
     38300   1.4815218      4.9457376      2448.1381     -2.6131962    
     38400   1.483543       4.9571723      2448.1381     -2.6122389    
     38500   1.4827878      4.9943783      2448.1381     -2.6125667    
     38600   1.5064588      4.7774329      2448.1381     -2.6128285    
     38700   1.490523       4.9268192      2448.1381     -2.612995     
     38800   1.4855432      4.8869522      2448.1381     -2.6132453    
     38900   1.4787869      4.9655177      2448.1381     -2.6127833    
     39000   1.4748751      5.0260158      2448.1381     -2.612045     
     39100   1.495747       4.8708273      2448.1381     -2.6137389    
     39200   1.5014684      4.8901116      2448.1381     -2.6128697    
     39300   1.4521804      5.1941892      2448.1381     -2.6123693    
     39400   1.4872298      4.9598736      2448.1381     -2.6121584    
     39500   1.4665458      5.081462       2448.1381     -2.6129549    
     39600   1.4635505      5.0523124      2448.1381     -2.6135009    
     39700   1.4842453      4.9466833      2448.1381     -2.6132135    
     39800   1.4777591      5.0149389      2448.1381     -2.6118942    
     39900   1.4943369      4.9148145      2448.1381     -2.6124924    
     40000   1.4864115      4.9227109      2448.1381     -2.6120164    
     40100   1.4756646      4.9826159      2448.1381     -2.6123041    
     40200   1.4888414      4.9121333      2448.1381     -2.6131103    
     40300   1.4700465      4.9956479      2448.1381     -2.6130956    
     40400   1.4960048      4.898274       2448.1381     -2.6122734    
     40500   1.5324234      4.6513393      2448.1381     -2.613539     
     40600   1.4719806      4.9815889      2448.1381     -2.6121174    
     40700   1.4964107      4.8966681      2448.1381     -2.6128173    
     40800   1.4839141      4.9800765      2448.1381     -2.6127278    
     40900   1.502385       4.8562143      2448.1381     -2.612442     
     41000   1.5105052      4.8100528      2448.1381     -2.6125247    
     41100   1.4971655      4.8857663      2448.1381     -2.613194     
     41200   1.5103546      4.8255197      2448.1381     -2.6124926    
     41300   1.4911049      4.912129       2448.1381     -2.6133003    
     41400   1.4653689      5.0827252      2448.1381     -2.6124355    
     41500   1.4710028      5.0909312      2448.1381     -2.6118228    
     41600   1.510227       4.8216385      2448.1381     -2.6122107    
     41700   1.458615       5.1516396      2448.1381     -2.6115339    
     41800   1.4608064      5.0381003      2448.1381     -2.6122616    
     41900   1.4541403      5.0911872      2448.1381     -2.6125245    
     42000   1.4686412      5.0803644      2448.1381     -2.6125032    
     42100   1.4892237      4.9062024      2448.1381     -2.6122188    
     42200   1.5022032      4.8793447      2448.1381     -2.6126484    
     42300   1.5203586      4.6981355      2448.1381     -2.6126828    
     42400   1.4769886      5.0571419      2448.1381     -2.6111604    
     42500   1.5124763      4.7748636      2448.1381     -2.6130406    
     42600   1.5074719      4.8018576      2448.1381     -2.612917     
     42700   1.5010257      4.8894038      2448.1381     -2.6127587    
     42800   1.4828359      4.9856524      2448.1381     -2.6120926    
     42900   1.4717277      4.9989108      2448.1381     -2.6137837    
