
     Program PWSCF v.7.4 starts on 19Nov2025 at  1:35:11 

     This program is part of the open-source Quantum ESPRESSO suite
     for quantum simulation of materials; please cite
         "P. Giannozzi et al., J. Phys.:Condens. Matter 21 395502 (2009);
         "P. Giannozzi et al., J. Phys.:Condens. Matter 29 465901 (2017);
         "P. Giannozzi et al., J. Chem. Phys. 152 154105 (2020);
          URL http://www.quantum-espresso.org", 
     in publications or presentations arising from this work. More details at
     http://www.quantum-espresso.org/quote

     Parallel version (MPI & OpenMP), running on       2 processor cores
     Number of MPI processes:                 1
     Threads/MPI process:                     2

     MPI processes distributed on     1 nodes
     27239 MiB available memory on the printing compute node when the environment starts

     Waiting for input...
     Reading input from standard input
     Message from routine read_cards :
     DEPRECATED: no units specified in ATOMIC_POSITIONS card
     Message from routine read_cards :
     ATOMIC_POSITIONS: units set to alat

     Current dimensions of program PWSCF are:
     Max number of different atomic species (ntypx) = 10
     Max number of k-points (npk) =  40000
     Max angular momentum in pseudopotentials (lmaxx) =  4
     file Ga.pbe-dn-kjpaw_psl.1.0.0.UPF: wavefunction(s)  4S renormalized

     Atomic positions and unit cell read from directory:
     ./tmp/GaAs.save/


     Subspace diagonalization in iterative solution of the eigenvalue problem:
     a serial algorithm will be used


     G-vector sticks info
     --------------------
     sticks:   dense  smooth     PW     G-vecs:    dense   smooth      PW
     Sum         955     955    301                19603    19195    3479

     Using Slab Decomposition



     bravais-lattice index     =            2
     lattice parameter (alat)  =      10.6867  a.u.
     unit-cell volume          =     305.1201 (a.u.)^3
     number of atoms/cell      =            2
     number of atomic types    =            2
     number of electrons       =        18.00
     number of Kohn-Sham states=           16
     kinetic-energy cutoff     =      60.0000  Ry
     charge density cutoff     =     244.0000  Ry
     Exchange-correlation= SLA  PW   PBX  PBC
                           (   1   4   3   4   0   0   0)

     celldm(1)=  10.686700  celldm(2)=   0.000000  celldm(3)=   0.000000
     celldm(4)=   0.000000  celldm(5)=   0.000000  celldm(6)=   0.000000

     crystal axes: (cart. coord. in units of alat)
               a(1) = (  -0.500000   0.000000   0.500000 )  
               a(2) = (   0.000000   0.500000   0.500000 )  
               a(3) = (  -0.500000   0.500000   0.000000 )  

     reciprocal axes: (cart. coord. in units 2 pi/alat)
               b(1) = ( -1.000000 -1.000000  1.000000 )  
               b(2) = (  1.000000  1.000000  1.000000 )  
               b(3) = ( -1.000000  1.000000 -1.000000 )  


     PseudoPot. # 1 for Ga read from file:
     ./Ga.pbe-dn-kjpaw_psl.1.0.0.UPF
     MD5 check sum: 50ce49cbf7e0a40ad8623bf41840a268
     Pseudo is Projector augmented-wave + core cor, Zval = 13.0
     Generated using &quot;atomic&quot; code by A. Dal Corso  v.6.3
     Shape of augmentation charge: PSQ
     Using radial grid of 1205 points,  6 beta functions with: 
                l(1) =   0
                l(2) =   0
                l(3) =   1
                l(4) =   1
                l(5) =   2
                l(6) =   2
     Q(r) pseudized with 0 coefficients 


     PseudoPot. # 2 for As read from file:
     ./As.pbe-n-kjpaw_psl.1.0.0.UPF
     MD5 check sum: 21b474db91924651be503153fb2dbf55
     Pseudo is Projector augmented-wave + core cor, Zval =  5.0
     Generated using &quot;atomic&quot; code by A. Dal Corso  v.6.3
     Shape of augmentation charge: PSQ
     Using radial grid of 1209 points,  4 beta functions with: 
                l(1) =   0
                l(2) =   0
                l(3) =   1
                l(4) =   1
     Q(r) pseudized with 0 coefficients 


     atomic species   valence    mass     pseudopotential
     Ga               13.00    69.72300     Ga( 1.00)
     As                5.00    74.92159     As( 1.00)

     24 Sym. Ops. (no inversion) found


                                    s                        frac. trans.

      isym =  1     identity                                     

 cryst.   s( 1) = (     1          0          0      )
                  (     0          1          0      )
                  (     0          0          1      )

 cart.    s( 1) = (  1.0000000  0.0000000  0.0000000 )
                  (  0.0000000  1.0000000  0.0000000 )
                  (  0.0000000  0.0000000  1.0000000 )


      isym =  2     180 deg rotation - cart. axis [0,0,1]        

 cryst.   s( 2) = (     0          1         -1      )
                  (     1          0         -1      )
                  (     0          0         -1      )

 cart.    s( 2) = ( -1.0000000  0.0000000  0.0000000 )
                  (  0.0000000 -1.0000000  0.0000000 )
                  (  0.0000000  0.0000000  1.0000000 )


      isym =  3     180 deg rotation - cart. axis [0,1,0]        

 cryst.   s( 3) = (    -1          0          0      )
                  (    -1          0          1      )
                  (    -1          1          0      )

 cart.    s( 3) = ( -1.0000000  0.0000000  0.0000000 )
                  (  0.0000000  1.0000000  0.0000000 )
                  (  0.0000000  0.0000000 -1.0000000 )


      isym =  4     180 deg rotation - cart. axis [1,0,0]        

 cryst.   s( 4) = (     0         -1          1      )
                  (     0         -1          0      )
                  (     1         -1          0      )

 cart.    s( 4) = (  1.0000000  0.0000000  0.0000000 )
                  (  0.0000000 -1.0000000  0.0000000 )
                  (  0.0000000  0.0000000 -1.0000000 )


      isym =  5     120 deg rotation - cart. axis [-1,-1,-1]     

 cryst.   s( 5) = (    -1          0          1      )
                  (    -1          1          0      )
                  (    -1          0          0      )

 cart.    s( 5) = (  0.0000000  1.0000000  0.0000000 )
                  (  0.0000000  0.0000000  1.0000000 )
                  (  1.0000000  0.0000000  0.0000000 )


      isym =  6     120 deg rotation - cart. axis [-1,1,1]       

 cryst.   s( 6) = (     0          1          0      )
                  (     0          0          1      )
                  (     1          0          0      )

 cart.    s( 6) = (  0.0000000 -1.0000000  0.0000000 )
                  (  0.0000000  0.0000000  1.0000000 )
                  ( -1.0000000  0.0000000  0.0000000 )


      isym =  7     120 deg rotation - cart. axis [1,1,-1]       

 cryst.   s( 7) = (     1          0         -1      )
                  (     0          0         -1      )
                  (     0          1         -1      )

 cart.    s( 7) = (  0.0000000  1.0000000  0.0000000 )
                  (  0.0000000  0.0000000 -1.0000000 )
                  ( -1.0000000  0.0000000  0.0000000 )


      isym =  8     120 deg rotation - cart. axis [1,-1,1]       

 cryst.   s( 8) = (     0         -1          0      )
                  (     1         -1          0      )
                  (     0         -1          1      )

 cart.    s( 8) = (  0.0000000 -1.0000000  0.0000000 )
                  (  0.0000000  0.0000000 -1.0000000 )
                  (  1.0000000  0.0000000  0.0000000 )


      isym =  9     120 deg rotation - cart. axis [1,1,1]        

 cryst.   s( 9) = (     0          0         -1      )
                  (     0          1         -1      )
                  (     1          0         -1      )

 cart.    s( 9) = (  0.0000000  0.0000000  1.0000000 )
                  (  1.0000000  0.0000000  0.0000000 )
                  (  0.0000000  1.0000000  0.0000000 )


      isym = 10     120 deg rotation - cart. axis [-1,1,-1]      

 cryst.   s(10) = (    -1          1          0      )
                  (    -1          0          0      )
                  (    -1          0          1      )

 cart.    s(10) = (  0.0000000  0.0000000  1.0000000 )
                  ( -1.0000000  0.0000000  0.0000000 )
                  (  0.0000000 -1.0000000  0.0000000 )


      isym = 11     120 deg rotation - cart. axis [1,-1,-1]      

 cryst.   s(11) = (     0          0          1      )
                  (     1          0          0      )
                  (     0          1          0      )

 cart.    s(11) = (  0.0000000  0.0000000 -1.0000000 )
                  ( -1.0000000  0.0000000  0.0000000 )
                  (  0.0000000  1.0000000  0.0000000 )


      isym = 12     120 deg rotation - cart. axis [-1,-1,1]      

 cryst.   s(12) = (     1         -1          0      )
                  (     0         -1          1      )
                  (     0         -1          0      )

 cart.    s(12) = (  0.0000000  0.0000000 -1.0000000 )
                  (  1.0000000  0.0000000  0.0000000 )
                  (  0.0000000 -1.0000000  0.0000000 )


      isym = 13     inv. 180 deg rotation - cart. axis [1,1,0]   

 cryst.   s(13) = (     0          1          0      )
                  (     1          0          0      )
                  (     0          0          1      )

 cart.    s(13) = (  0.0000000 -1.0000000  0.0000000 )
                  ( -1.0000000  0.0000000  0.0000000 )
                  (  0.0000000  0.0000000  1.0000000 )


      isym = 14     inv. 180 deg rotation - cart. axis [1,-1,0]  

 cryst.   s(14) = (     1          0         -1      )
                  (     0          1         -1      )
                  (     0          0         -1      )

 cart.    s(14) = (  0.0000000  1.0000000  0.0000000 )
                  (  1.0000000  0.0000000  0.0000000 )
                  (  0.0000000  0.0000000  1.0000000 )


      isym = 15     inv.  90 deg rotation - cart. axis [0,0,-1]  

 cryst.   s(15) = (     0         -1          0      )
                  (     0         -1          1      )
                  (     1         -1          0      )

 cart.    s(15) = (  0.0000000 -1.0000000  0.0000000 )
                  (  1.0000000  0.0000000  0.0000000 )
                  (  0.0000000  0.0000000 -1.0000000 )


      isym = 16     inv.  90 deg rotation - cart. axis [0,0,1]   

 cryst.   s(16) = (    -1          0          1      )
                  (    -1          0          0      )
                  (    -1          1          0      )

 cart.    s(16) = (  0.0000000  1.0000000  0.0000000 )
                  ( -1.0000000  0.0000000  0.0000000 )
                  (  0.0000000  0.0000000 -1.0000000 )


      isym = 17     inv. 180 deg rotation - cart. axis [1,0,1]   

 cryst.   s(17) = (     1          0          0      )
                  (     0          0          1      )
                  (     0          1          0      )

 cart.    s(17) = (  0.0000000  0.0000000 -1.0000000 )
                  (  0.0000000  1.0000000  0.0000000 )
                  ( -1.0000000  0.0000000  0.0000000 )


      isym = 18     inv. 180 deg rotation - cart. axis [-1,0,1]  

 cryst.   s(18) = (    -1          0          0      )
                  (    -1          1          0      )
                  (    -1          0          1      )

 cart.    s(18) = (  0.0000000  0.0000000  1.0000000 )
                  (  0.0000000  1.0000000  0.0000000 )
                  (  1.0000000  0.0000000  0.0000000 )


      isym = 19     inv.  90 deg rotation - cart. axis [0,1,0]   

 cryst.   s(19) = (     0         -1          1      )
                  (     1         -1          0      )
                  (     0         -1          0      )

 cart.    s(19) = (  0.0000000  0.0000000 -1.0000000 )
                  (  0.0000000 -1.0000000  0.0000000 )
                  (  1.0000000  0.0000000  0.0000000 )


      isym = 20     inv.  90 deg rotation - cart. axis [0,-1,0]  

 cryst.   s(20) = (     0          1         -1      )
                  (     0          0         -1      )
                  (     1          0         -1      )

 cart.    s(20) = (  0.0000000  0.0000000  1.0000000 )
                  (  0.0000000 -1.0000000  0.0000000 )
                  ( -1.0000000  0.0000000  0.0000000 )


      isym = 21     inv. 180 deg rotation - cart. axis [0,1,1]   

 cryst.   s(21) = (     1         -1          0      )
                  (     0         -1          0      )
                  (     0         -1          1      )

 cart.    s(21) = (  1.0000000  0.0000000  0.0000000 )
                  (  0.0000000  0.0000000 -1.0000000 )
                  (  0.0000000 -1.0000000  0.0000000 )


      isym = 22     inv. 180 deg rotation - cart. axis [0,1,-1]  

 cryst.   s(22) = (     0          0          1      )
                  (     0          1          0      )
                  (     1          0          0      )

 cart.    s(22) = (  1.0000000  0.0000000  0.0000000 )
                  (  0.0000000  0.0000000  1.0000000 )
                  (  0.0000000  1.0000000  0.0000000 )


      isym = 23     inv.  90 deg rotation - cart. axis [-1,0,0]  

 cryst.   s(23) = (     0          0         -1      )
                  (     1          0         -1      )
                  (     0          1         -1      )

 cart.    s(23) = ( -1.0000000  0.0000000  0.0000000 )
                  (  0.0000000  0.0000000 -1.0000000 )
                  (  0.0000000  1.0000000  0.0000000 )


      isym = 24     inv.  90 deg rotation - cart. axis [1,0,0]   

 cryst.   s(24) = (    -1          1          0      )
                  (    -1          0          1      )
                  (    -1          0          0      )

 cart.    s(24) = ( -1.0000000  0.0000000  0.0000000 )
                  (  0.0000000  0.0000000  1.0000000 )
                  (  0.0000000 -1.0000000  0.0000000 )


     point group T_d (-43m) 
     there are  5 classes
     the character table:

       E     8C3   3C2   6S4   6s_d 
A_1    1.00  1.00  1.00  1.00  1.00
A_2    1.00  1.00  1.00 -1.00 -1.00
E      2.00 -1.00  2.00  0.00  0.00
T_1    3.00  0.00 -1.00  1.00 -1.00
T_2    3.00  0.00 -1.00 -1.00  1.00

     the symmetry operations in each class and the name of the first element:

     E        1
          identity                                               
     8C3      5    7    8    6   12    9   10   11
          120 deg rotation - cart. axis [-1,-1,-1]               
     3C2      2    3    4
          180 deg rotation - cart. axis [0,0,1]                  
     6S4     15   16   20   19   23   24
          inv.  90 deg rotation - cart. axis [0,0,-1]            
     6s_d    13   14   17   18   21   22
          inv. 180 deg rotation - cart. axis [1,1,0]             

   Cartesian axes

     site n.     atom                  positions (alat units)
         1        Ga     tau(   1) = (   0.0000000   0.0000000   0.0000000  )
         2        As     tau(   2) = (   0.2500000   0.2500000   0.2500000  )

   Crystallographic axes

     site n.     atom                  positions (cryst. coord.)
         1        Ga     tau(   1) = (  0.0000000  0.0000000  0.0000000  )
         2        As     tau(   2) = ( -0.2500000  0.7500000 -0.2500000  )

     number of k points=    91
                       cart. coord. in units 2pi/alat
        k(    1) = (   0.5000000   0.5000000   0.5000000), wk =   0.0219780
        k(    2) = (   0.4750000   0.4750000   0.4750000), wk =   0.0219780
        k(    3) = (   0.4500000   0.4500000   0.4500000), wk =   0.0219780
        k(    4) = (   0.4250000   0.4250000   0.4250000), wk =   0.0219780
        k(    5) = (   0.4000000   0.4000000   0.4000000), wk =   0.0219780
        k(    6) = (   0.3750000   0.3750000   0.3750000), wk =   0.0219780
        k(    7) = (   0.3500000   0.3500000   0.3500000), wk =   0.0219780
        k(    8) = (   0.3250000   0.3250000   0.3250000), wk =   0.0219780
        k(    9) = (   0.3000000   0.3000000   0.3000000), wk =   0.0219780
        k(   10) = (   0.2750000   0.2750000   0.2750000), wk =   0.0219780
        k(   11) = (   0.2500000   0.2500000   0.2500000), wk =   0.0219780
        k(   12) = (   0.2250000   0.2250000   0.2250000), wk =   0.0219780
        k(   13) = (   0.2000000   0.2000000   0.2000000), wk =   0.0219780
        k(   14) = (   0.1750000   0.1750000   0.1750000), wk =   0.0219780
        k(   15) = (   0.1500000   0.1500000   0.1500000), wk =   0.0219780
        k(   16) = (   0.1250000   0.1250000   0.1250000), wk =   0.0219780
        k(   17) = (   0.1000000   0.1000000   0.1000000), wk =   0.0219780
        k(   18) = (   0.0750000   0.0750000   0.0750000), wk =   0.0219780
        k(   19) = (   0.0500000   0.0500000   0.0500000), wk =   0.0219780
        k(   20) = (   0.0250000   0.0250000   0.0250000), wk =   0.0219780
        k(   21) = (   0.0000000   0.0000000   0.0000000), wk =   0.0219780
        k(   22) = (   0.0333333   0.0000000   0.0000000), wk =   0.0219780
        k(   23) = (   0.0666667   0.0000000   0.0000000), wk =   0.0219780
        k(   24) = (   0.1000000   0.0000000   0.0000000), wk =   0.0219780
        k(   25) = (   0.1333333   0.0000000   0.0000000), wk =   0.0219780
        k(   26) = (   0.1666667   0.0000000   0.0000000), wk =   0.0219780
        k(   27) = (   0.2000000   0.0000000   0.0000000), wk =   0.0219780
        k(   28) = (   0.2333333   0.0000000   0.0000000), wk =   0.0219780
        k(   29) = (   0.2666667   0.0000000   0.0000000), wk =   0.0219780
        k(   30) = (   0.3000000   0.0000000   0.0000000), wk =   0.0219780
        k(   31) = (   0.3333333   0.0000000   0.0000000), wk =   0.0219780
        k(   32) = (   0.3666667   0.0000000   0.0000000), wk =   0.0219780
        k(   33) = (   0.4000000   0.0000000   0.0000000), wk =   0.0219780
        k(   34) = (   0.4333333   0.0000000   0.0000000), wk =   0.0219780
        k(   35) = (   0.4666667   0.0000000   0.0000000), wk =   0.0219780
        k(   36) = (   0.5000000   0.0000000   0.0000000), wk =   0.0219780
        k(   37) = (   0.5333333   0.0000000   0.0000000), wk =   0.0219780
        k(   38) = (   0.5666667   0.0000000   0.0000000), wk =   0.0219780
        k(   39) = (   0.6000000   0.0000000   0.0000000), wk =   0.0219780
        k(   40) = (   0.6333333   0.0000000   0.0000000), wk =   0.0219780
        k(   41) = (   0.6666667   0.0000000   0.0000000), wk =   0.0219780
        k(   42) = (   0.7000000   0.0000000   0.0000000), wk =   0.0219780
        k(   43) = (   0.7333333   0.0000000   0.0000000), wk =   0.0219780
        k(   44) = (   0.7666667   0.0000000   0.0000000), wk =   0.0219780
        k(   45) = (   0.8000000   0.0000000   0.0000000), wk =   0.0219780
        k(   46) = (   0.8333333   0.0000000   0.0000000), wk =   0.0219780
        k(   47) = (   0.8666667   0.0000000   0.0000000), wk =   0.0219780
        k(   48) = (   0.9000000   0.0000000   0.0000000), wk =   0.0219780
        k(   49) = (   0.9333333   0.0000000   0.0000000), wk =   0.0219780
        k(   50) = (   0.9666667   0.0000000   0.0000000), wk =   0.0219780
        k(   51) = (   1.0000000   0.0000000   0.0000000), wk =   0.0219780
        k(   52) = (   1.0050000  -0.0300000   0.0300000), wk =   0.0219780
        k(   53) = (   1.0100000  -0.0600000   0.0600000), wk =   0.0219780
        k(   54) = (   1.0150000  -0.0900000   0.0900000), wk =   0.0219780
        k(   55) = (   1.0200000  -0.1200000   0.1200000), wk =   0.0219780
        k(   56) = (   1.0250000  -0.1500000   0.1500000), wk =   0.0219780
        k(   57) = (   1.0300000  -0.1800000   0.1800000), wk =   0.0219780
        k(   58) = (   1.0350000  -0.2100000   0.2100000), wk =   0.0219780
        k(   59) = (   1.0400000  -0.2400000   0.2400000), wk =   0.0219780
        k(   60) = (   1.0450000  -0.2700000   0.2700000), wk =   0.0219780
        k(   61) = (   1.0500000  -0.3000000   0.3000000), wk =   0.0219780
        k(   62) = (   1.0483333  -0.3233333   0.3233333), wk =   0.0219780
        k(   63) = (   1.0466667  -0.3466667   0.3466667), wk =   0.0219780
        k(   64) = (   1.0450000  -0.3700000   0.3700000), wk =   0.0219780
        k(   65) = (   1.0433333  -0.3933333   0.3933333), wk =   0.0219780
        k(   66) = (   1.0416667  -0.4166667   0.4166667), wk =   0.0219780
        k(   67) = (   1.0400000  -0.4400000   0.4400000), wk =   0.0219780
        k(   68) = (   1.0383333  -0.4633333   0.4633333), wk =   0.0219780
        k(   69) = (   1.0366667  -0.4866667   0.4866667), wk =   0.0219780
        k(   70) = (   1.0350000  -0.5100000   0.5100000), wk =   0.0219780
        k(   71) = (   1.0333333  -0.5333333   0.5333333), wk =   0.0219780
        k(   72) = (   1.0316667  -0.5566667   0.5566667), wk =   0.0219780
        k(   73) = (   1.0300000  -0.5800000   0.5800000), wk =   0.0219780
        k(   74) = (   1.0283333  -0.6033333   0.6033333), wk =   0.0219780
        k(   75) = (   1.0266667  -0.6266667   0.6266667), wk =   0.0219780
        k(   76) = (   1.0250000  -0.6500000   0.6500000), wk =   0.0219780
        k(   77) = (   1.0233333  -0.6733333   0.6733333), wk =   0.0219780
        k(   78) = (   1.0216667  -0.6966667   0.6966667), wk =   0.0219780
        k(   79) = (   1.0200000  -0.7200000   0.7200000), wk =   0.0219780
        k(   80) = (   1.0183333  -0.7433333   0.7433333), wk =   0.0219780
        k(   81) = (   1.0166667  -0.7666667   0.7666667), wk =   0.0219780
        k(   82) = (   1.0150000  -0.7900000   0.7900000), wk =   0.0219780
        k(   83) = (   1.0133333  -0.8133333   0.8133333), wk =   0.0219780
        k(   84) = (   1.0116667  -0.8366667   0.8366667), wk =   0.0219780
        k(   85) = (   1.0100000  -0.8600000   0.8600000), wk =   0.0219780
        k(   86) = (   1.0083333  -0.8833333   0.8833333), wk =   0.0219780
        k(   87) = (   1.0066667  -0.9066667   0.9066667), wk =   0.0219780
        k(   88) = (   1.0050000  -0.9300000   0.9300000), wk =   0.0219780
        k(   89) = (   1.0033333  -0.9533333   0.9533333), wk =   0.0219780
        k(   90) = (   1.0016667  -0.9766667   0.9766667), wk =   0.0219780
        k(   91) = (   1.0000000  -1.0000000   1.0000000), wk =   0.0219780

                       cryst. coord.
        k(    1) = (   0.0000000   0.5000000   0.0000000), wk =   0.0219780
        k(    2) = (   0.0000000   0.4750000   0.0000000), wk =   0.0219780
        k(    3) = (   0.0000000   0.4500000   0.0000000), wk =   0.0219780
        k(    4) = (   0.0000000   0.4250000   0.0000000), wk =   0.0219780
        k(    5) = (   0.0000000   0.4000000   0.0000000), wk =   0.0219780
        k(    6) = (   0.0000000   0.3750000   0.0000000), wk =   0.0219780
        k(    7) = (   0.0000000   0.3500000   0.0000000), wk =   0.0219780
        k(    8) = (   0.0000000   0.3250000   0.0000000), wk =   0.0219780
        k(    9) = (   0.0000000   0.3000000   0.0000000), wk =   0.0219780
        k(   10) = (   0.0000000   0.2750000   0.0000000), wk =   0.0219780
        k(   11) = (   0.0000000   0.2500000   0.0000000), wk =   0.0219780
        k(   12) = (   0.0000000   0.2250000   0.0000000), wk =   0.0219780
        k(   13) = (   0.0000000   0.2000000   0.0000000), wk =   0.0219780
        k(   14) = (   0.0000000   0.1750000   0.0000000), wk =   0.0219780
        k(   15) = (   0.0000000   0.1500000   0.0000000), wk =   0.0219780
        k(   16) = (   0.0000000   0.1250000   0.0000000), wk =   0.0219780
        k(   17) = (   0.0000000   0.1000000   0.0000000), wk =   0.0219780
        k(   18) = (   0.0000000   0.0750000   0.0000000), wk =   0.0219780
        k(   19) = (   0.0000000   0.0500000   0.0000000), wk =   0.0219780
        k(   20) = (   0.0000000   0.0250000   0.0000000), wk =   0.0219780
        k(   21) = (   0.0000000   0.0000000   0.0000000), wk =   0.0219780
        k(   22) = (  -0.0166667   0.0000000  -0.0166667), wk =   0.0219780
        k(   23) = (  -0.0333333   0.0000000  -0.0333333), wk =   0.0219780
        k(   24) = (  -0.0500000   0.0000000  -0.0500000), wk =   0.0219780
        k(   25) = (  -0.0666667   0.0000000  -0.0666667), wk =   0.0219780
        k(   26) = (  -0.0833333   0.0000000  -0.0833333), wk =   0.0219780
        k(   27) = (  -0.1000000   0.0000000  -0.1000000), wk =   0.0219780
        k(   28) = (  -0.1166667   0.0000000  -0.1166667), wk =   0.0219780
        k(   29) = (  -0.1333333   0.0000000  -0.1333333), wk =   0.0219780
        k(   30) = (  -0.1500000   0.0000000  -0.1500000), wk =   0.0219780
        k(   31) = (  -0.1666667   0.0000000  -0.1666667), wk =   0.0219780
        k(   32) = (  -0.1833333   0.0000000  -0.1833333), wk =   0.0219780
        k(   33) = (  -0.2000000   0.0000000  -0.2000000), wk =   0.0219780
        k(   34) = (  -0.2166667   0.0000000  -0.2166667), wk =   0.0219780
        k(   35) = (  -0.2333333   0.0000000  -0.2333333), wk =   0.0219780
        k(   36) = (  -0.2500000   0.0000000  -0.2500000), wk =   0.0219780
        k(   37) = (  -0.2666667   0.0000000  -0.2666667), wk =   0.0219780
        k(   38) = (  -0.2833333   0.0000000  -0.2833333), wk =   0.0219780
        k(   39) = (  -0.3000000   0.0000000  -0.3000000), wk =   0.0219780
        k(   40) = (  -0.3166667   0.0000000  -0.3166667), wk =   0.0219780
        k(   41) = (  -0.3333333   0.0000000  -0.3333333), wk =   0.0219780
        k(   42) = (  -0.3500000   0.0000000  -0.3500000), wk =   0.0219780
        k(   43) = (  -0.3666667   0.0000000  -0.3666667), wk =   0.0219780
        k(   44) = (  -0.3833333   0.0000000  -0.3833333), wk =   0.0219780
        k(   45) = (  -0.4000000   0.0000000  -0.4000000), wk =   0.0219780
        k(   46) = (  -0.4166667   0.0000000  -0.4166667), wk =   0.0219780
        k(   47) = (  -0.4333333   0.0000000  -0.4333333), wk =   0.0219780
        k(   48) = (  -0.4500000   0.0000000  -0.4500000), wk =   0.0219780
        k(   49) = (  -0.4666667   0.0000000  -0.4666667), wk =   0.0219780
        k(   50) = (  -0.4833333   0.0000000  -0.4833333), wk =   0.0219780
        k(   51) = (  -0.5000000   0.0000000  -0.5000000), wk =   0.0219780
        k(   52) = (  -0.4875000   0.0000000  -0.5175000), wk =   0.0219780
        k(   53) = (  -0.4750000   0.0000000  -0.5350000), wk =   0.0219780
        k(   54) = (  -0.4625000   0.0000000  -0.5525000), wk =   0.0219780
        k(   55) = (  -0.4500000   0.0000000  -0.5700000), wk =   0.0219780
        k(   56) = (  -0.4375000   0.0000000  -0.5875000), wk =   0.0219780
        k(   57) = (  -0.4250000   0.0000000  -0.6050000), wk =   0.0219780
        k(   58) = (  -0.4125000   0.0000000  -0.6225000), wk =   0.0219780
        k(   59) = (  -0.4000000   0.0000000  -0.6400000), wk =   0.0219780
        k(   60) = (  -0.3875000   0.0000000  -0.6575000), wk =   0.0219780
        k(   61) = (  -0.3750000   0.0000000  -0.6750000), wk =   0.0219780
        k(   62) = (  -0.3625000   0.0000000  -0.6858333), wk =   0.0219780
        k(   63) = (  -0.3500000   0.0000000  -0.6966667), wk =   0.0219780
        k(   64) = (  -0.3375000   0.0000000  -0.7075000), wk =   0.0219780
        k(   65) = (  -0.3250000   0.0000000  -0.7183333), wk =   0.0219780
        k(   66) = (  -0.3125000   0.0000000  -0.7291667), wk =   0.0219780
        k(   67) = (  -0.3000000   0.0000000  -0.7400000), wk =   0.0219780
        k(   68) = (  -0.2875000   0.0000000  -0.7508333), wk =   0.0219780
        k(   69) = (  -0.2750000   0.0000000  -0.7616667), wk =   0.0219780
        k(   70) = (  -0.2625000   0.0000000  -0.7725000), wk =   0.0219780
        k(   71) = (  -0.2500000   0.0000000  -0.7833333), wk =   0.0219780
        k(   72) = (  -0.2375000   0.0000000  -0.7941667), wk =   0.0219780
        k(   73) = (  -0.2250000   0.0000000  -0.8050000), wk =   0.0219780
        k(   74) = (  -0.2125000   0.0000000  -0.8158333), wk =   0.0219780
        k(   75) = (  -0.2000000   0.0000000  -0.8266667), wk =   0.0219780
        k(   76) = (  -0.1875000   0.0000000  -0.8375000), wk =   0.0219780
        k(   77) = (  -0.1750000   0.0000000  -0.8483333), wk =   0.0219780
        k(   78) = (  -0.1625000   0.0000000  -0.8591667), wk =   0.0219780
        k(   79) = (  -0.1500000   0.0000000  -0.8700000), wk =   0.0219780
        k(   80) = (  -0.1375000   0.0000000  -0.8808333), wk =   0.0219780
        k(   81) = (  -0.1250000   0.0000000  -0.8916667), wk =   0.0219780
        k(   82) = (  -0.1125000   0.0000000  -0.9025000), wk =   0.0219780
        k(   83) = (  -0.1000000   0.0000000  -0.9133333), wk =   0.0219780
        k(   84) = (  -0.0875000   0.0000000  -0.9241667), wk =   0.0219780
        k(   85) = (  -0.0750000   0.0000000  -0.9350000), wk =   0.0219780
        k(   86) = (  -0.0625000   0.0000000  -0.9458333), wk =   0.0219780
        k(   87) = (  -0.0500000   0.0000000  -0.9566667), wk =   0.0219780
        k(   88) = (  -0.0375000   0.0000000  -0.9675000), wk =   0.0219780
        k(   89) = (  -0.0250000   0.0000000  -0.9783333), wk =   0.0219780
        k(   90) = (  -0.0125000   0.0000000  -0.9891667), wk =   0.0219780
        k(   91) = (   0.0000000   0.0000000  -1.0000000), wk =   0.0219780

     Dense  grid:    19603 G-vectors     FFT dimensions: (  40,  40,  40)

     Smooth grid:    19195 G-vectors     FFT dimensions: (  40,  40,  40)

     Dynamical RAM for                 wfc:       0.58 MB

     Dynamical RAM for     wfc (w. buffer):       0.58 MB

     Dynamical RAM for           str. fact:       0.60 MB

     Dynamical RAM for           local pot:       0.00 MB

     Dynamical RAM for          nlocal pot:       0.95 MB

     Dynamical RAM for                qrad:       2.51 MB

     Dynamical RAM for          rho,v,vnew:       2.36 MB

     Dynamical RAM for           G-vectors:       1.27 MB

     Dynamical RAM for          h,s,v(r/c):       0.19 MB

     Dynamical RAM for          <psi|beta>:       0.01 MB

     Dynamical RAM for                 psi:       2.34 MB

     Dynamical RAM for                hpsi:       2.34 MB

     Dynamical RAM for                spsi:       2.34 MB

     Dynamical RAM for      wfcinit/wfcrot:       1.18 MB

     Dynamical RAM for           addusdens:      55.94 MB

     Estimated static dynamical RAM per process >      11.61 MB

     Estimated max dynamical RAM per process >      67.55 MB

     The potential is recalculated from file :
     ./tmp/GaAs.save/charge-density

     Starting wfcs are   13 randomized atomic wfcs +    3 random wfcs
     Checking if some PAW data can be deallocated... 

     Band Structure Calculation
     Davidson diagonalization with overlap

     Computing kpt #:     1  of    91
     total cpu time spent up to now is       10.8 secs

     Computing kpt #:     2  of    91
     total cpu time spent up to now is       17.1 secs

     Computing kpt #:     3  of    91
     total cpu time spent up to now is       23.4 secs

     Computing kpt #:     4  of    91
     total cpu time spent up to now is       29.1 secs

     Computing kpt #:     5  of    91
     total cpu time spent up to now is       34.8 secs

     Computing kpt #:     6  of    91
     total cpu time spent up to now is       40.4 secs

     Computing kpt #:     7  of    91
     total cpu time spent up to now is       45.8 secs

     Computing kpt #:     8  of    91
     total cpu time spent up to now is       51.4 secs

     Computing kpt #:     9  of    91
     total cpu time spent up to now is       56.8 secs

     Computing kpt #:    10  of    91
     total cpu time spent up to now is       62.2 secs

     Computing kpt #:    11  of    91
     total cpu time spent up to now is       67.6 secs

     Computing kpt #:    12  of    91
     total cpu time spent up to now is       72.9 secs

     Computing kpt #:    13  of    91
     total cpu time spent up to now is       78.5 secs

     Computing kpt #:    14  of    91
     total cpu time spent up to now is       84.0 secs

     Computing kpt #:    15  of    91
     total cpu time spent up to now is       89.5 secs

     Computing kpt #:    16  of    91
     total cpu time spent up to now is       95.0 secs

     Computing kpt #:    17  of    91
     total cpu time spent up to now is      100.5 secs

     Computing kpt #:    18  of    91
     total cpu time spent up to now is      106.1 secs

     Computing kpt #:    19  of    91
     total cpu time spent up to now is      111.8 secs

     Computing kpt #:    20  of    91
     total cpu time spent up to now is      117.4 secs

     Computing kpt #:    21  of    91
     total cpu time spent up to now is      121.6 secs

     Computing kpt #:    22  of    91
     total cpu time spent up to now is      127.3 secs

     Computing kpt #:    23  of    91
     total cpu time spent up to now is      133.1 secs

     Computing kpt #:    24  of    91
     total cpu time spent up to now is      138.8 secs

     Computing kpt #:    25  of    91
     total cpu time spent up to now is      144.4 secs

     Computing kpt #:    26  of    91
     total cpu time spent up to now is      149.8 secs

     Computing kpt #:    27  of    91
     total cpu time spent up to now is      155.2 secs

     Computing kpt #:    28  of    91
     total cpu time spent up to now is      160.5 secs

     Computing kpt #:    29  of    91
     total cpu time spent up to now is      165.8 secs

     Computing kpt #:    30  of    91
     total cpu time spent up to now is      171.0 secs

     Computing kpt #:    31  of    91
     total cpu time spent up to now is      176.1 secs

     Computing kpt #:    32  of    91
     total cpu time spent up to now is      181.0 secs

     Computing kpt #:    33  of    91
     total cpu time spent up to now is      185.9 secs

     Computing kpt #:    34  of    91
     total cpu time spent up to now is      190.5 secs

     Computing kpt #:    35  of    91
     total cpu time spent up to now is      195.4 secs

     Computing kpt #:    36  of    91
     total cpu time spent up to now is      200.4 secs

     Computing kpt #:    37  of    91
     total cpu time spent up to now is      205.3 secs

     Computing kpt #:    38  of    91
     total cpu time spent up to now is      210.2 secs

     Computing kpt #:    39  of    91
     total cpu time spent up to now is      215.2 secs

     Computing kpt #:    40  of    91
     total cpu time spent up to now is      220.4 secs

     Computing kpt #:    41  of    91
     total cpu time spent up to now is      225.5 secs

     Computing kpt #:    42  of    91
     total cpu time spent up to now is      230.7 secs

     Computing kpt #:    43  of    91
     total cpu time spent up to now is      235.9 secs

     Computing kpt #:    44  of    91
     total cpu time spent up to now is      241.7 secs

     Computing kpt #:    45  of    91
     total cpu time spent up to now is      247.3 secs

     Computing kpt #:    46  of    91
     total cpu time spent up to now is      253.2 secs

     Computing kpt #:    47  of    91
     total cpu time spent up to now is      259.5 secs

     Computing kpt #:    48  of    91
     total cpu time spent up to now is      265.9 secs

     Computing kpt #:    49  of    91
     total cpu time spent up to now is      274.1 secs

     Computing kpt #:    50  of    91
     total cpu time spent up to now is      285.3 secs

     Computing kpt #:    51  of    91
     total cpu time spent up to now is      292.0 secs

     Computing kpt #:    52  of    91
     total cpu time spent up to now is      299.8 secs

     Computing kpt #:    53  of    91
     total cpu time spent up to now is      306.3 secs

     Computing kpt #:    54  of    91
     total cpu time spent up to now is      312.5 secs

     Computing kpt #:    55  of    91
     total cpu time spent up to now is      318.6 secs

     Computing kpt #:    56  of    91
     total cpu time spent up to now is      324.2 secs

     Computing kpt #:    57  of    91
     total cpu time spent up to now is      329.6 secs

     Computing kpt #:    58  of    91
     total cpu time spent up to now is      335.1 secs

     Computing kpt #:    59  of    91
     total cpu time spent up to now is      340.5 secs

     Computing kpt #:    60  of    91
     total cpu time spent up to now is      346.5 secs

     Computing kpt #:    61  of    91
     total cpu time spent up to now is      353.0 secs

     Computing kpt #:    62  of    91
     total cpu time spent up to now is      359.3 secs

     Computing kpt #:    63  of    91
     total cpu time spent up to now is      365.5 secs

     Computing kpt #:    64  of    91
     total cpu time spent up to now is      371.9 secs

     Computing kpt #:    65  of    91
     total cpu time spent up to now is      377.8 secs

     Computing kpt #:    66  of    91
     total cpu time spent up to now is      383.7 secs

     Computing kpt #:    67  of    91
     total cpu time spent up to now is      389.8 secs

     Computing kpt #:    68  of    91
     total cpu time spent up to now is      396.1 secs

     Computing kpt #:    69  of    91
     total cpu time spent up to now is      402.2 secs

     Computing kpt #:    70  of    91
     total cpu time spent up to now is      408.4 secs

     Computing kpt #:    71  of    91
     total cpu time spent up to now is      413.8 secs

     Computing kpt #:    72  of    91
     total cpu time spent up to now is      419.7 secs

     Computing kpt #:    73  of    91
     total cpu time spent up to now is      425.4 secs

     Computing kpt #:    74  of    91
     total cpu time spent up to now is      431.2 secs

     Computing kpt #:    75  of    91
     total cpu time spent up to now is      436.7 secs

     Computing kpt #:    76  of    91
     total cpu time spent up to now is      442.3 secs

     Computing kpt #:    77  of    91
     total cpu time spent up to now is      447.7 secs

     Computing kpt #:    78  of    91
     total cpu time spent up to now is      453.1 secs

     Computing kpt #:    79  of    91
     total cpu time spent up to now is      458.6 secs

     Computing kpt #:    80  of    91
     total cpu time spent up to now is      464.1 secs

     Computing kpt #:    81  of    91
     total cpu time spent up to now is      469.8 secs

     Computing kpt #:    82  of    91
     total cpu time spent up to now is      475.5 secs

     Computing kpt #:    83  of    91
     total cpu time spent up to now is      481.1 secs

     Computing kpt #:    84  of    91
     total cpu time spent up to now is      486.9 secs

     Computing kpt #:    85  of    91
     total cpu time spent up to now is      492.9 secs

     Computing kpt #:    86  of    91
     total cpu time spent up to now is      498.8 secs

     Computing kpt #:    87  of    91
     total cpu time spent up to now is      504.8 secs

     Computing kpt #:    88  of    91
     total cpu time spent up to now is      510.8 secs

     Computing kpt #:    89  of    91
     total cpu time spent up to now is      516.4 secs

     Computing kpt #:    90  of    91
     total cpu time spent up to now is      521.9 secs

     Computing kpt #:    91  of    91
     total cpu time spent up to now is      526.3 secs

     ethr =  5.56E-11,  avg # of iterations = 30.4

     total cpu time spent up to now is      526.3 secs

     End of band structure calculation

          k = 0.5000 0.5000 0.5000 (  2392 PWs)   bands (ev):

    -8.1508  -8.0527  -8.0527  -7.9895  -7.9895  -4.2536   0.0716   5.5694
     5.5694   7.7070  11.3451  11.3451  14.5259  17.1497  18.6989  18.6989

          k = 0.4750 0.4750 0.4750 (  2386 PWs)   bands (ev):

    -8.1504  -8.0528  -8.0528  -7.9896  -7.9896  -4.2720   0.1047   5.5744
     5.5744   7.7122  11.3480  11.3480  14.5279  17.0318  18.5214  18.5214

          k = 0.4500 0.4500 0.4500 (  2392 PWs)   bands (ev):

    -8.1492  -8.0530  -8.0530  -7.9898  -7.9898  -4.3258   0.2023   5.5892
     5.5892   7.7274  11.3563  11.3563  14.5308  16.7429  18.1552  18.1552

          k = 0.4250 0.4250 0.4250 (  2401 PWs)   bands (ev):

    -8.1471  -8.0534  -8.0534  -7.9901  -7.9901  -4.4098   0.3592   5.6138
     5.6138   7.7526  11.3688  11.3688  14.5256  16.3858  17.7500  17.7500

          k = 0.4000 0.4000 0.4000 (  2407 PWs)   bands (ev):

    -8.1443  -8.0539  -8.0539  -7.9906  -7.9906  -4.5174   0.5687   5.6480
     5.6480   7.7877  11.3835  11.3835  14.4917  16.0345  17.3527  17.3527

          k = 0.3750 0.3750 0.3750 (  2406 PWs)   bands (ev):

    -8.1407  -8.0547  -8.0547  -7.9911  -7.9911  -4.6416   0.8235   5.6916
     5.6916   7.8322  11.3976  11.3976  14.3903  15.7518  16.9809  16.9809

          k = 0.3500 0.3500 0.3500 (  2415 PWs)   bands (ev):

    -8.1365  -8.0555  -8.0555  -7.9916  -7.9916  -4.7761   1.1168   5.7440
     5.7440   7.8855  11.4071  11.4071  14.1808  15.5891  16.6442  16.6442

          k = 0.3250 0.3250 0.3250 (  2412 PWs)   bands (ev):

    -8.1317  -8.0566  -8.0566  -7.9922  -7.9922  -4.9154   1.4427   5.8050
     5.8050   7.9468  11.4079  11.4079  13.8676  15.5470  16.3506  16.3506

          k = 0.3000 0.3000 0.3000 (  2406 PWs)   bands (ev):

    -8.1264  -8.0578  -8.0578  -7.9927  -7.9927  -5.0552   1.7962   5.8739
     5.8739   8.0147  11.3950  11.3950  13.4920  15.5849  16.1069  16.1069

          k = 0.2750 0.2750 0.2750 (  2403 PWs)   bands (ev):

    -8.1206  -8.0592  -8.0592  -7.9931  -7.9931  -5.1919   2.1733   5.9498
     5.9498   8.0873  11.3638  11.3638  13.0890  15.6652  15.9187  15.9187

          k = 0.2500 0.2500 0.2500 (  2406 PWs)   bands (ev):

    -8.1146  -8.0607  -8.0607  -7.9935  -7.9935  -5.3228   2.5702   6.0318
     6.0318   8.1618  11.3112  11.3112  12.6786  15.7601  15.7908  15.7908

          k = 0.2250 0.2250 0.2250 (  2406 PWs)   bands (ev):

    -8.1085  -8.0623  -8.0623  -7.9938  -7.9938  -5.4460   2.9838   6.1185
     6.1185   8.2336  11.2363  11.2363  12.2732  15.7252  15.7252  15.8413

          k = 0.2000 0.2000 0.2000 (  2409 PWs)   bands (ev):

    -8.1023  -8.0639  -8.0639  -7.9940  -7.9940  -5.5596   3.4111   6.2083
     6.2083   8.2962  11.1411  11.1411  11.8820  15.7210  15.7210  15.8686

          k = 0.1750 0.1750 0.1750 (  2391 PWs)   bands (ev):

    -8.0963  -8.0655  -8.0655  -7.9941  -7.9941  -5.6625   3.8495   6.2994
     6.2994   8.3396  11.0303  11.0303  11.5154  15.7754  15.7754  15.7920

          k = 0.1500 0.1500 0.1500 (  2391 PWs)   bands (ev):

    -8.0906  -8.0670  -8.0670  -7.9942  -7.9942  -5.7534   4.2958   6.3889
     6.3889   8.3493  10.9106  10.9106  11.1859  15.5941  15.8814  15.8814

          k = 0.1250 0.1250 0.1250 (  2385 PWs)   bands (ev):

    -8.0853  -8.0684  -8.0684  -7.9942  -7.9942  -5.8317   4.7469   6.4741
     6.4741   8.3068  10.7900  10.7900  10.9090  15.3193  16.0319  16.0319

          k = 0.1000 0.1000 0.1000 (  2385 PWs)   bands (ev):

    -8.0808  -8.0696  -8.0696  -7.9942  -7.9942  -5.8967   5.1988   6.5516
     6.5516   8.1939  10.6768  10.6768  10.6990  15.0286  16.2177  16.2177

          k = 0.0750 0.0750 0.0750 (  2409 PWs)   bands (ev):

    -8.0770  -8.0706  -8.0706  -7.9942  -7.9942  -5.9477   5.6461   6.6172
     6.6172   8.0016  10.5603  10.5788  10.5788  14.7658  16.4256  16.4256

          k = 0.0500 0.0500 0.0500 (  2418 PWs)   bands (ev):

    -8.0742  -8.0713  -8.0713  -7.9942  -7.9942  -5.9845   6.0803   6.6678
     6.6678   7.7382  10.4831  10.5030  10.5030  14.5592  16.6372  16.6372

          k = 0.0250 0.0250 0.0250 (  2421 PWs)   bands (ev):

    -8.0725  -8.0718  -8.0718  -7.9942  -7.9942  -6.0067   6.4795   6.6997
     6.6997   7.4351  10.4481  10.4551  10.4551  14.4274  16.8127  16.8127

          k = 0.0000 0.0000 0.0000 (  2421 PWs)   bands (ev):

    -8.0719  -8.0719  -8.0719  -7.9942  -7.9942  -6.0141   6.7106   6.7106
     6.7106   7.2349  10.4386  10.4386  10.4386  14.3822  16.8859  16.8859

          k = 0.0333 0.0000 0.0000 (  2421 PWs)   bands (ev):

    -8.0724  -8.0718  -8.0718  -7.9942  -7.9941  -6.0097   6.5729   6.6954
     6.6954   7.3719  10.4221  10.4593  10.4593  14.4091  16.7937  16.8906

          k = 0.0667 0.0000 0.0000 (  2421 PWs)   bands (ev):

    -8.0736  -8.0714  -8.0714  -7.9944  -7.9940  -5.9965   6.3147   6.6510
     6.6510   7.6278  10.3738  10.5203  10.5203  14.4881  16.5622  16.9045

          k = 0.1000 0.0000 0.0000 (  2413 PWs)   bands (ev):

    -8.0757  -8.0708  -8.0708  -7.9946  -7.9938  -5.9746   6.0312   6.5804
     6.5804   7.9066  10.2982  10.6186  10.6186  14.6148  16.2622  16.9277

          k = 0.1333 0.0000 0.0000 (  2397 PWs)   bands (ev):

    -8.0785  -8.0699  -8.0699  -7.9950  -7.9936  -5.9441   5.7407   6.4878
     6.4878   8.1881  10.2010  10.7501  10.7501  14.7822  15.9368  16.9605

          k = 0.1667 0.0000 0.0000 (  2389 PWs)   bands (ev):

    -8.0819  -8.0688  -8.0688  -7.9954  -7.9932  -5.9051   5.4482   6.3774
     6.3774   8.4643  10.0891  10.9101  10.9101  14.9773  15.6157  17.0025

          k = 0.2000 0.0000 0.0000 (  2381 PWs)   bands (ev):

    -8.0860  -8.0674  -8.0674  -7.9960  -7.9928  -5.8576   5.1558   6.2538
     6.2538   8.7280   9.9703  11.0941  11.0941  15.1153  15.3921  17.0541

          k = 0.2333 0.0000 0.0000 (  2389 PWs)   bands (ev):

    -8.0906  -8.0658  -8.0658  -7.9967  -7.9923  -5.8020   4.8645   6.1208
     6.1208   8.9687   9.8554  11.2980  11.2980  14.9160  15.5505  17.1144

          k = 0.2667 0.0000 0.0000 (  2389 PWs)   bands (ev):

    -8.0956  -8.0641  -8.0641  -7.9975  -7.9918  -5.7382   4.5748   5.9818
     5.9818   9.1627   9.7660  11.5185  11.5185  14.6502  15.8262  17.1842

          k = 0.3000 0.0000 0.0000 (  2385 PWs)   bands (ev):

    -8.1009  -8.0621  -8.0621  -7.9984  -7.9912  -5.6667   4.2872   5.8397
     5.8397   9.2576   9.7510  11.7526  11.7526  14.4112  16.1308  17.2630

          k = 0.3333 0.0000 0.0000 (  2405 PWs)   bands (ev):

    -8.1065  -8.0600  -8.0600  -7.9994  -7.9906  -5.5875   4.0017   5.6964
     5.6964   9.2270   9.8310  11.9978  11.9978  14.2153  16.4539  17.3500

          k = 0.3667 0.0000 0.0000 (  2397 PWs)   bands (ev):

    -8.1122  -8.0577  -8.0577  -8.0005  -7.9899  -5.5010   3.7189   5.5542
     5.5542   9.1332   9.9369  12.2526  12.2526  14.0745  16.7911  17.4474

          k = 0.4000 0.0000 0.0000 (  2405 PWs)   bands (ev):

    -8.1180  -8.0554  -8.0554  -8.0017  -7.9893  -5.4074   3.4389   5.4142
     5.4142   9.0209  10.0174  12.5149  12.5149  13.9977  17.1395  17.5529

          k = 0.4333 0.0000 0.0000 (  2409 PWs)   bands (ev):

    -8.1238  -8.0529  -8.0529  -8.0030  -7.9885  -5.3071   3.1622   5.2777
     5.2777   8.9058  10.0537  12.7837  12.7837  13.9898  17.4959  17.6676

          k = 0.4667 0.0000 0.0000 (  2417 PWs)   bands (ev):

    -8.1296  -8.0504  -8.0504  -8.0043  -7.9878  -5.2004   2.8889   5.1457
     5.1457   8.7934  10.0415  13.0578  13.0578  14.0500  17.7915  17.8575

          k = 0.5000 0.0000 0.0000 (  2413 PWs)   bands (ev):

    -8.1352  -8.0478  -8.0478  -8.0056  -7.9871  -5.0879   2.6195   5.0190
     5.0190   8.6867   9.9852  13.3364  13.3364  14.1727  17.9242  18.2210

          k = 0.5333 0.0000 0.0000 (  2417 PWs)   bands (ev):

    -8.1407  -8.0452  -8.0452  -8.0070  -7.9863  -4.9700   2.3546   4.8982
     4.8982   8.5871   9.8932  13.6185  13.6185  14.3475  18.0654  18.5823

          k = 0.5667 0.0000 0.0000 (  2417 PWs)   bands (ev):

    -8.1460  -8.0427  -8.0427  -8.0084  -7.9856  -4.8473   2.0946   4.7839
     4.7839   8.4958   9.7759  13.9033  13.9033  14.5638  18.2147  18.9365

          k = 0.6000 0.0000 0.0000 (  2397 PWs)   bands (ev):

    -8.1511  -8.0401  -8.0401  -8.0097  -7.9849  -4.7205   1.8404   4.6768
     4.6768   8.4134   9.6422  14.1905  14.1905  14.8114  18.3729  19.2773

          k = 0.6333 0.0000 0.0000 (  2397 PWs)   bands (ev):

    -8.1558  -8.0377  -8.0377  -8.0111  -7.9842  -4.5905   1.5928   4.5769
     4.5769   8.3403   9.4996  14.4785  14.4785  15.0814  18.5383  19.5966

          k = 0.6667 0.0000 0.0000 (  2397 PWs)   bands (ev):

    -8.1603  -8.0353  -8.0353  -8.0124  -7.9835  -4.4585   1.3531   4.4847
     4.4847   8.2771   9.3539  14.7667  14.7667  15.3671  18.7109  19.8842

          k = 0.7000 0.0000 0.0000 (  2397 PWs)   bands (ev):

    -8.1644  -8.0331  -8.0331  -8.0136  -7.9829  -4.3257   1.1224   4.4005
     4.4005   8.2240   9.2096  15.0540  15.0540  15.6625  18.8901  20.1277

          k = 0.7333 0.0000 0.0000 (  2397 PWs)   bands (ev):

    -8.1681  -8.0311  -8.0311  -8.0147  -7.9823  -4.1938   0.9027   4.3245
     4.3245   8.1813   9.0697  15.3386  15.3386  15.9627  19.0746  20.3141

          k = 0.7667 0.0000 0.0000 (  2393 PWs)   bands (ev):

    -8.1715  -8.0292  -8.0292  -8.0158  -7.9818  -4.0648   0.6960   4.2571
     4.2571   8.1492   8.9367  15.6184  15.6184  16.2629  19.2631  20.4324

          k = 0.8000 0.0000 0.0000 (  2401 PWs)   bands (ev):

    -8.1744  -8.0275  -8.0275  -8.0167  -7.9813  -3.9412   0.5049   4.1983
     4.1983   8.1276   8.8124  15.8900  15.8900  16.5580  19.4532  20.4785

          k = 0.8333 0.0000 0.0000 (  2394 PWs)   bands (ev):

    -8.1769  -8.0260  -8.0260  -8.0175  -7.9809  -3.8262   0.3326   4.1483
     4.1483   8.1167   8.6982  16.1492  16.1492  16.8421  19.6418  20.4581

          k = 0.8667 0.0000 0.0000 (  2402 PWs)   bands (ev):

    -8.1790  -8.0248  -8.0248  -8.0182  -7.9806  -3.7234   0.1828   4.1072
     4.1072   8.1160   8.5951  16.3887  16.3887  17.1074  19.8233  20.3869

          k = 0.9000 0.0000 0.0000 (  2382 PWs)   bands (ev):

    -8.1806  -8.0238  -8.0238  -8.0188  -7.9803  -3.6369   0.0597   4.0752
     4.0752   8.1252   8.5054  16.5993  16.5993  17.3431  19.9901  20.2872

          k = 0.9333 0.0000 0.0000 (  2390 PWs)   bands (ev):

    -8.1817  -8.0231  -8.0231  -8.0192  -7.9801  -3.5710  -0.0325   4.0522
     4.0522   8.1414   8.4305  16.7674  16.7674  17.5340  20.1287  20.1846

          k = 0.9667 0.0000 0.0000 (  2398 PWs)   bands (ev):

    -8.1825  -8.0227  -8.0227  -8.0194  -7.9800  -3.5296  -0.0896   4.0384
     4.0384   8.1602   8.3765  16.8777  16.8777  17.6612  20.1072  20.2233

          k = 1.0000 0.0000 0.0000 (  2402 PWs)   bands (ev):

    -8.1827  -8.0226  -8.0226  -8.0195  -7.9799  -3.5154  -0.1091   4.0338
     4.0338   8.1696   8.3552  16.9164  16.9164  17.7062  20.0782  20.2049

          k = 1.0050-0.0300 0.0300 (  2406 PWs)   bands (ev):

    -8.1825  -8.0231  -8.0227  -8.0190  -7.9800  -3.5147  -0.1057   3.9946
     4.0402   8.2005   8.3971  16.8228  16.8620  17.7002  19.8564  19.9412

          k = 1.0100-0.0600 0.0600 (  2408 PWs)   bands (ev):

    -8.1818  -8.0243  -8.0230  -8.0181  -7.9804  -3.5130  -0.0959   3.8854
     4.0593   8.2531   8.5545  16.5928  16.7086  17.6237  19.6246  19.7407

          k = 1.0150-0.0900 0.0900 (  2404 PWs)   bands (ev):

    -8.1808  -8.0258  -8.0235  -8.0169  -7.9809  -3.5108  -0.0799   3.7266
     4.0909   8.3000   8.8354  16.2952  16.4786  17.4229  19.2824  19.7941

          k = 1.0200-0.1200 0.1200 (  2401 PWs)   bands (ev):

    -8.1795  -8.0275  -8.0243  -8.0155  -7.9816  -3.5096  -0.0584   3.5419
     4.1349   8.3502   9.2074  15.9666  16.1963  17.1247  18.9251  19.9675

          k = 1.0250-0.1500 0.1500 (  2394 PWs)   bands (ev):

    -8.1778  -8.0295  -8.0252  -8.0139  -7.9825  -3.5109  -0.0319   3.3523
     4.1909   8.4089   9.6448  15.6252  15.8815  16.7770  18.5629  20.2015

          k = 1.0300-0.1800 0.1800 (  2390 PWs)   bands (ev):

    -8.1759  -8.0316  -8.0263  -8.0121  -7.9836  -3.5171  -0.0012   3.1744
     4.2586   8.4775  10.1292  15.2817  15.5483  16.4117  18.2028  20.4546

          k = 1.0350-0.2100 0.2100 (  2389 PWs)   bands (ev):

    -8.1738  -8.0337  -8.0276  -8.0102  -7.9847  -3.5306   0.0337   3.0208
     4.3374   8.5558  10.6457  14.9447  15.2066  16.0472  17.8503  20.6975

          k = 1.0400-0.2400 0.2400 (  2386 PWs)   bands (ev):

    -8.1716  -8.0359  -8.0291  -8.0082  -7.9859  -3.5542   0.0730   2.9005
     4.4268   8.6432  11.1788  14.6242  14.8631  15.6949  17.5089  20.8994

          k = 1.0450-0.2700 0.2700 (  2386 PWs)   bands (ev):

    -8.1693  -8.0380  -8.0308  -8.0061  -7.9872  -3.5905   0.1182   2.8196
     4.5260   8.7385  11.7052  14.3363  14.5227  15.3641  17.1817  21.0082

          k = 1.0500-0.3000 0.3000 (  2383 PWs)   bands (ev):

    -8.1669  -8.0399  -8.0326  -8.0040  -7.9884  -3.6417   0.1717   2.7811
     4.6342   8.8399  12.1793  14.1132  14.1887  15.0702  16.8708  20.9395

          k = 1.0483-0.3233 0.3233 (  2382 PWs)   bands (ev):

    -8.1651  -8.0413  -8.0340  -8.0024  -7.9894  -3.6903   0.2216   2.7726
     4.7222   8.9194  12.4599  13.9493  14.0561  14.8436  16.6222  20.8106

          k = 1.0467-0.3467 0.3467 (  2382 PWs)   bands (ev):

    -8.1632  -8.0426  -8.0355  -8.0008  -7.9904  -3.7501   0.2829   2.7876
     4.8147   9.0004  12.6139  13.7160  14.0358  14.7357  16.3853  20.6335

          k = 1.0450-0.3700 0.3700 (  2382 PWs)   bands (ev):

    -8.1612  -8.0437  -8.0371  -7.9993  -7.9913  -3.8210   0.3571   2.8250
     4.9110   9.0812  12.6418  13.4891  13.9308  14.8674  16.1608  20.4370

          k = 1.0433-0.3933 0.3933 (  2379 PWs)   bands (ev):

    -8.1592  -8.0448  -8.0388  -7.9979  -7.9922  -3.9025   0.4455   2.8834
     5.0108   9.1601  12.5904  13.2693  13.7368  15.1945  15.9497  20.2359

          k = 1.0417-0.4167 0.4167 (  2379 PWs)   bands (ev):

    -8.1570  -8.0458  -8.0404  -7.9966  -7.9930  -3.9935   0.5490   2.9612
     5.1132   9.2350  12.5032  13.0570  13.5146  15.6097  15.7527  20.0377

          k = 1.0400-0.4400 0.4400 (  2384 PWs)   bands (ev):

    -8.1547  -8.0467  -8.0422  -7.9954  -7.9938  -4.0929   0.6680   3.0568
     5.2177   9.3035  12.4045  12.8525  13.2898  15.5709  16.0566  19.8466

          k = 1.0383-0.4633 0.4633 (  2392 PWs)   bands (ev):

    -8.1522  -8.0475  -8.0439  -7.9945  -7.9944  -4.1990   0.8026   3.1686
     5.3235   9.3629  12.3058  12.6559  13.0734  15.4049  16.5019  19.6634

          k = 1.0367-0.4867 0.4867 (  2392 PWs)   bands (ev):

    -8.1495  -8.0483  -8.0457  -7.9951  -7.9936  -4.3105   0.9527   3.2952
     5.4299   9.4108  12.2109  12.4677  12.8729  15.2562  16.9137  19.4814

          k = 1.0350-0.5100 0.5100 (  2390 PWs)   bands (ev):

    -8.1466  -8.0491  -8.0475  -7.9956  -7.9928  -4.4257   1.1180   3.4353
     5.5360   9.4448  12.1169  12.2877  12.6971  15.1255  17.2520  19.2782

          k = 1.0333-0.5333 0.5333 (  2396 PWs)   bands (ev):

    -8.1435  -8.0500  -8.0493  -7.9960  -7.9923  -4.5431   1.2979   3.5875
     5.6411   9.4632  12.0152  12.1160  12.5575  15.0133  17.4720  19.0272

          k = 1.0317-0.5567 0.5567 (  2398 PWs)   bands (ev):

    -8.1401  -8.0510  -8.0508  -7.9964  -7.9919  -4.6614   1.4918   3.7506
     5.7442   9.4652  11.8965  11.9528  12.4635  14.9211  17.5478  18.7321

          k = 1.0300-0.5800 0.5800 (  2396 PWs)   bands (ev):

    -8.1365  -8.0528  -8.0517  -7.9966  -7.9916  -4.7793   1.6993   3.9234
     5.8446   9.4509  11.7601  11.7980  12.4136  14.8498  17.4893  18.4225

          k = 1.0283-0.6033 0.6033 (  2398 PWs)   bands (ev):

    -8.1326  -8.0546  -8.0527  -7.9968  -7.9915  -4.8957   1.9197   4.1048
     5.9414   9.4216  11.6136  11.6517  12.3955  14.7999  17.3260  18.1266

          k = 1.0267-0.6267 0.6267 (  2395 PWs)   bands (ev):

    -8.1286  -8.0563  -8.0538  -7.9969  -7.9915  -5.0096   2.1524   4.2934
     6.0339   9.3789  11.4654  11.5138  12.3940  14.7725  17.0925  17.8564

          k = 1.0250-0.6500 0.6500 (  2395 PWs)   bands (ev):

    -8.1243  -8.0579  -8.0549  -7.9969  -7.9916  -5.1201   2.3968   4.4881
     6.1214   9.3248  11.3207  11.3842  12.3946  14.7680  16.8269  17.6060

          k = 1.0233-0.6733 0.6733 (  2399 PWs)   bands (ev):

    -8.1198  -8.0595  -8.0562  -7.9968  -7.9917  -5.2264   2.6523   4.6873
     6.2034   9.2611  11.1831  11.2630  12.3834  14.7868  16.5649  17.3629

          k = 1.0217-0.6967 0.6967 (  2403 PWs)   bands (ev):

    -8.1152  -8.0611  -8.0576  -7.9967  -7.9919  -5.3279   2.9183   4.8896
     6.2793   9.1893  11.0547  11.1501  12.3468  14.8295  16.3340  17.1181

          k = 1.0200-0.7200 0.7200 (  2405 PWs)   bands (ev):

    -8.1105  -8.0625  -8.0590  -7.9965  -7.9921  -5.4239   3.1942   5.0931
     6.3489   9.1102  10.9368  11.0454  12.2737  14.8963  16.1523  16.8681

          k = 1.0183-0.7433 0.7433 (  2399 PWs)   bands (ev):

    -8.1057  -8.0639  -8.0605  -7.9963  -7.9924  -5.5140   3.4795   5.2961
     6.4119   9.0240  10.8307  10.9491  12.1578  14.9871  16.0281  16.6146

          k = 1.0167-0.7667 0.7667 (  2401 PWs)   bands (ev):

    -8.1010  -8.0652  -8.0620  -7.9961  -7.9927  -5.5976   3.7733   5.4963
     6.4681   8.9300  10.7370  10.8609  11.9990  15.1012  15.9527  16.3698

          k = 1.0150-0.7900 0.7900 (  2403 PWs)   bands (ev):

    -8.0964  -8.0665  -8.0635  -7.9958  -7.9929  -5.6744   4.0749   5.6911
     6.5178   8.8266  10.6565  10.7810  11.8049  15.2381  15.8718  16.1869

          k = 1.0133-0.8133 0.8133 (  2399 PWs)   bands (ev):

    -8.0919  -8.0676  -8.0650  -7.9955  -7.9932  -5.7441   4.3835   5.8778
     6.5611   8.7114  10.5895  10.7095  11.5876  15.3972  15.6885  16.1573

          k = 1.0117-0.8367 0.8367 (  2390 PWs)   bands (ev):

    -8.0877  -8.0686  -8.0664  -7.9953  -7.9934  -5.8062   4.6980   6.0535
     6.5981   8.5810  10.5362  10.6462  11.3614  15.4490  15.5768  16.2283

          k = 1.0100-0.8600 0.8600 (  2388 PWs)   bands (ev):

    -8.0838  -8.0694  -8.0678  -7.9950  -7.9936  -5.8607   5.0169   6.2147
     6.6294   8.4317  10.4961  10.5913  11.1404  15.2067  15.7751  16.3396

          k = 1.0083-0.8833 0.8833 (  2393 PWs)   bands (ev):

    -8.0804  -8.0702  -8.0689  -7.9948  -7.9938  -5.9071   5.3386   6.3582
     6.6550   8.2597  10.4682  10.5447  10.9372  14.9798  15.9885  16.4677

          k = 1.0067-0.9067 0.9067 (  2405 PWs)   bands (ev):

    -8.0775  -8.0708  -8.0700  -7.9946  -7.9939  -5.9454   5.6607   6.4808
     6.6755   8.0629  10.4511  10.5066  10.7619  14.7787  16.2123  16.5965

          k = 1.0050-0.9300 0.9300 (  2415 PWs)   bands (ev):

    -8.0751  -8.0713  -8.0708  -7.9944  -7.9940  -5.9753   5.9795   6.5793
     6.6910   7.8420  10.4423  10.4769  10.6215  14.6118  16.4391  16.7129

          k = 1.0033-0.9533 0.9533 (  2421 PWs)   bands (ev):

    -8.0734  -8.0717  -8.0714  -7.9943  -7.9941  -5.9968   6.2878   6.6516
     6.7020   7.6029  10.4391  10.4556  10.5200  14.4865  16.6525  16.8057

          k = 1.0017-0.9767 0.9767 (  2421 PWs)   bands (ev):

    -8.0723  -8.0719  -8.0718  -7.9942  -7.9942  -6.0098   6.5647   6.6957
     6.7085   7.3672  10.4386  10.4429  10.4590  14.4086  16.8192  16.8654

          k = 1.0000-1.0000 1.0000 (  2421 PWs)   bands (ev):

    -8.0719  -8.0719  -8.0719  -7.9942  -7.9942  -6.0141   6.7106   6.7106
     6.7106   7.2349  10.4386  10.4386  10.4386  14.3822  16.8859  16.8859

     Writing all to output data dir ./tmp/GaAs.save/ :
     XML data file, pseudopotentials, collected wavefunctions

     init_run     :      3.81s CPU      3.58s WALL (       1 calls)
     electrons    :   1029.92s CPU    522.13s WALL (       1 calls)

     Called by init_run:
     wfcinit      :      0.00s CPU      0.00s WALL (       1 calls)
     wfcinit:atom :      0.33s CPU      0.17s WALL (      91 calls)
     wfcinit:wfcr :     32.44s CPU     16.57s WALL (      91 calls)
     potinit      :      0.95s CPU      0.76s WALL (       1 calls)
     hinit0       :      2.51s CPU      2.47s WALL (       1 calls)

     Called by electrons:
     c_bands      :   1029.91s CPU    522.13s WALL (       1 calls)
     v_of_rho     :      0.09s CPU      0.05s WALL (       1 calls)
     v_h          :      0.01s CPU      0.00s WALL (       1 calls)
     v_xc         :      0.08s CPU      0.05s WALL (       1 calls)
     newd         :      0.27s CPU      0.26s WALL (       1 calls)
     PAW_pot      :      0.85s CPU      0.69s WALL (       1 calls)

     Called by c_bands:
     init_us_2    :      0.44s CPU      0.24s WALL (      91 calls)
     cegterg      :    995.30s CPU    504.43s WALL (     186 calls)

     Called by sum_band:

     Called by *egterg:
     cdiaghg      :      8.04s CPU      4.02s WALL (    2860 calls)
     cegterg:over :     10.83s CPU      5.47s WALL (    2769 calls)
     cegterg:upda :     17.99s CPU      9.06s WALL (    2769 calls)
     cegterg:last :      6.53s CPU      3.26s WALL (     666 calls)
     h_psi        :    940.46s CPU    476.97s WALL (    3046 calls)
     s_psi        :      3.64s CPU      1.80s WALL (    3046 calls)
     g_psi        :     14.04s CPU      7.08s WALL (    2769 calls)

     Called by h_psi:
     h_psi:calbec :     10.92s CPU      5.56s WALL (    3046 calls)
     vloc_psi     :    913.46s CPU    463.21s WALL (    3046 calls)
     add_vuspsi   :      3.29s CPU      1.75s WALL (    3046 calls)

     General routines
     calbec       :     10.90s CPU      5.55s WALL (    3046 calls)
     fft          :      0.37s CPU      0.31s WALL (      13 calls)
     ffts         :      0.00s CPU      0.00s WALL (       1 calls)
     fftw         :    879.95s CPU    446.39s WALL (   64516 calls)
     interpolate  :      0.01s CPU      0.00s WALL (       1 calls)
     davcio       :      0.09s CPU      0.09s WALL (     182 calls)

     Parallel routines

     PAW routines
     PAW_pot      :      0.85s CPU      0.69s WALL (       1 calls)

     PWSCF        :  17m14.66s CPU   8m47.34s WALL


   This run was terminated on:   1:43:59  19Nov2025            

=------------------------------------------------------------------------------=
   JOB DONE.
=------------------------------------------------------------------------------=
