
     Program PWSCF v.7.4 starts on 22Nov2025 at 16:26:52 

     This program is part of the open-source Quantum ESPRESSO suite
     for quantum simulation of materials; please cite
         "P. Giannozzi et al., J. Phys.:Condens. Matter 21 395502 (2009);
         "P. Giannozzi et al., J. Phys.:Condens. Matter 29 465901 (2017);
         "P. Giannozzi et al., J. Chem. Phys. 152 154105 (2020);
          URL http://www.quantum-espresso.org", 
     in publications or presentations arising from this work. More details at
     http://www.quantum-espresso.org/quote

     Parallel version (MPI & OpenMP), running on       2 processor cores
     Number of MPI processes:                 1
     Threads/MPI process:                     2

     MPI processes distributed on     1 nodes
     20215 MiB available memory on the printing compute node when the environment starts

     Waiting for input...
     Reading input from standard input

     Current dimensions of program PWSCF are:
     Max number of different atomic species (ntypx) = 10
     Max number of k-points (npk) =  40000
     Max angular momentum in pseudopotentials (lmaxx) =  4

     Subspace diagonalization in iterative solution of the eigenvalue problem:
     a serial algorithm will be used


     G-vector sticks info
     --------------------
     sticks:   dense  smooth     PW     G-vecs:    dense   smooth      PW
     Sum       33345   16693   4599              1363917   482247   69897

     Using Slab Decomposition



     bravais-lattice index     =            0
     lattice parameter (alat)  =      38.6872  a.u.
     unit-cell volume          =    7679.5612 (a.u.)^3
     number of atoms/cell      =           28
     number of atomic types    =            4
     number of electrons       =       192.00
     number of Kohn-Sham states=          115
     kinetic-energy cutoff     =      60.0000  Ry
     charge density cutoff     =     480.0000  Ry
     scf convergence threshold =      1.0E-08
     mixing beta               =       0.7000
     number of iterations used =            8  plain     mixing
     energy convergence thresh.=      1.0E-04
     force convergence thresh. =      1.0E-03
     Exchange-correlation= PBE
                           (   1   4   3   4   0   0   0)
     nstep                     =           50


     celldm(1)=  38.687214  celldm(2)=   0.000000  celldm(3)=   0.000000
     celldm(4)=   0.000000  celldm(5)=   0.000000  celldm(6)=   0.000000

     crystal axes: (cart. coord. in units of alat)
               a(1) = (   1.000000   0.000000   0.000000 )  
               a(2) = (   0.000000   0.583298   0.000000 )  
               a(3) = (   0.000000   0.000000   0.227375 )  

     reciprocal axes: (cart. coord. in units 2 pi/alat)
               b(1) = (  1.000000  0.000000  0.000000 )  
               b(2) = (  0.000000  1.714389  0.000000 )  
               b(3) = (  0.000000  0.000000  4.398014 )  


     PseudoPot. # 1 for Li read from file:
     ./Li.upf
     MD5 check sum: dbcf0ea72988e720c8c712b432d51b0d
     Pseudo is Norm-conserving, Zval =  3.0
     Generated using ONCVPSP code by D. R. Hamann
     Using radial grid of 1944 points,  4 beta functions with: 
                l(1) =   0
                l(2) =   0
                l(3) =   1
                l(4) =   1

     PseudoPot. # 2 for Fe read from file:
     ./Fe.upf
     MD5 check sum: a5f07f5dca5be6cacb81ceb54992e4ae
     Pseudo is Norm-conserving + core correction, Zval = 16.0
     Generated using ONCVPSP code by D. R. Hamann
     Using radial grid of 1426 points,  6 beta functions with: 
                l(1) =   0
                l(2) =   0
                l(3) =   1
                l(4) =   1
                l(5) =   2
                l(6) =   2

     PseudoPot. # 3 for P  read from file:
     ./P.upf
     MD5 check sum: c802fd0635a0ed1615482a1b584dae5b
     Pseudo is Norm-conserving + core correction, Zval =  5.0
     Generated using ONCVPSP code by D. R. Hamann
     Using radial grid of 1298 points,  6 beta functions with: 
                l(1) =   0
                l(2) =   0
                l(3) =   1
                l(4) =   1
                l(5) =   2
                l(6) =   2

     PseudoPot. # 4 for O  read from file:
     ./O.upf
     MD5 check sum: 3e3f909f7470e8921608ab6b1f57bbae
     Pseudo is Norm-conserving + core correction, Zval =  6.0
     Generated using ONCVPSP code by D. R. Hamann
     Using radial grid of  936 points,  5 beta functions with: 
                l(1) =   0
                l(2) =   0
                l(3) =   1
                l(4) =   1
                l(5) =   2

     atomic species   valence    mass     pseudopotential
     Li                3.00     6.94000     Li( 1.00)
     Fe               16.00    55.84500     Fe( 1.00)
     P                 5.00    30.97400     P ( 1.00)
     O                 6.00    15.99900     O ( 1.00)

     Starting magnetic structure 
     atomic species   magnetization
     Li              0.000
     Fe              0.700
     P               0.000
     O               0.000

     No symmetry found


                                    s                        frac. trans.

      isym =  1     identity                                     

 cryst.   s( 1) = (     1          0          0      )
                  (     0          1          0      )
                  (     0          0          1      )

 cart.    s( 1) = (  1.0000000  0.0000000  0.0000000 )
                  (  0.0000000  1.0000000  0.0000000 )
                  (  0.0000000  0.0000000  1.0000000 )


   Cartesian axes

     site n.     atom                  positions (alat units)
         1        Li     tau(   1) = (   0.0000000   0.0000000   0.0000000  )
         2        Li     tau(   2) = (   0.1136877   0.1458247   0.2500001  )
         3        Li     tau(   3) = (   0.1136877   0.0000000   0.2500001  )
         4        Li     tau(   4) = (   0.0000000   0.1458247   0.0000000  )
         5        Fe     tau(   5) = (   0.1204783   0.0729123   0.3905758  )
         6        Fe     tau(   6) = (   0.0067906   0.2187370   0.3594245  )
         7        Fe     tau(   7) = (   0.2205844   0.0729123   0.1405757  )
         8        Fe     tau(   8) = (   0.1068971   0.2187370   0.1094244  )
         9        P      tau(   9) = (   0.0951843   0.0729123   0.0469330  )
        10        P      tau(  10) = (   0.2088720   0.2187370   0.2030666  )
        11        P      tau(  11) = (   0.0185035   0.0729123   0.2969331  )
        12        P      tau(  12) = (   0.1321907   0.2187370   0.4530667  )
        13        O      tau(  13) = (   0.1693461   0.0729123   0.0471152  )
        14        O      tau(  14) = (   0.1622859   0.1591114   0.4170773  )
        15        O      tau(  15) = (   0.1622859   0.2783622   0.4170773  )
        16        O      tau(  16) = (   0.0580294   0.2187370   0.4528845  )
        17        O      tau(  17) = (   0.1614057   0.2187370   0.0221542  )
        18        O      tau(  18) = (   0.0556584   0.2187370   0.2028844  )
        19        O      tau(  19) = (   0.0650896   0.0132872   0.0829229  )
        20        O      tau(  20) = (   0.0485981   0.1325375   0.3329225  )
        21        O      tau(  21) = (   0.1787773   0.1591114   0.1670772  )
        22        O      tau(  22) = (   0.1787773   0.2783622   0.1670772  )
        23        O      tau(  23) = (   0.0659698   0.0729123   0.4778455  )
        24        O      tau(  24) = (   0.0477179   0.0729123   0.2278459  )
        25        O      tau(  25) = (   0.1796576   0.2187370   0.2721543  )
        26        O      tau(  26) = (   0.1717171   0.0729123   0.2971153  )
        27        O      tau(  27) = (   0.0485981   0.0132872   0.3329225  )
        28        O      tau(  28) = (   0.0650896   0.1325375   0.0829229  )

   Crystallographic axes

     site n.     atom                  positions (cryst. coord.)
         1        Li     tau(   1) = (  0.0000000  0.0000000  0.0000000  )
         2        Li     tau(   2) = (  0.1136877  0.2500002  1.0995040  )
         3        Li     tau(   3) = (  0.1136877  0.0000000  1.0995040  )
         4        Li     tau(   4) = (  0.0000000  0.2500002  0.0000000  )
         5        Fe     tau(   5) = (  0.1204783  0.1250001  1.7177577  )
         6        Fe     tau(   6) = (  0.0067906  0.3750003  1.5807542  )
         7        Fe     tau(   7) = (  0.2205844  0.1250001  0.6182537  )
         8        Fe     tau(   8) = (  0.1068971  0.3750003  0.4812502  )
         9        P      tau(   9) = (  0.0951843  0.1250001  0.2064118  )
        10        P      tau(  10) = (  0.2088720  0.3750003  0.8930900  )
        11        P      tau(  11) = (  0.0185035  0.1250001  1.3059158  )
        12        P      tau(  12) = (  0.1321907  0.3750003  1.9925940  )
        13        O      tau(  13) = (  0.1693461  0.1250001  0.2072131  )
        14        O      tau(  14) = (  0.1622859  0.2727787  1.8343119  )
        15        O      tau(  15) = (  0.1622859  0.4772210  1.8343119  )
        16        O      tau(  16) = (  0.0580294  0.3750003  1.9917927  )
        17        O      tau(  17) = (  0.1614057  0.3750003  0.0974346  )
        18        O      tau(  18) = (  0.0556584  0.3750003  0.8922887  )
        19        O      tau(  19) = (  0.0650896  0.0227794  0.3646961  )
        20        O      tau(  20) = (  0.0485981  0.2272208  1.4641979  )
        21        O      tau(  21) = (  0.1787773  0.2727787  0.7348079  )
        22        O      tau(  22) = (  0.1787773  0.4772210  0.7348079  )
        23        O      tau(  23) = (  0.0659698  0.1250001  2.1015712  )
        24        O      tau(  24) = (  0.0477179  0.1250001  1.0020694  )
        25        O      tau(  25) = (  0.1796576  0.3750003  1.1969386  )
        26        O      tau(  26) = (  0.1717171  0.1250001  1.3067171  )
        27        O      tau(  27) = (  0.0485981  0.0227794  1.4641979  )
        28        O      tau(  28) = (  0.0650896  0.2272208  0.3646961  )

     number of k points=    36  Marzari-Vanderbilt smearing, width (Ry)=  0.0100
                       cart. coord. in units 2pi/alat
        k(    1) = (   0.0000000   0.0000000   0.0000000), wk =   0.0156250
        k(    2) = (   0.0000000   0.0000000   0.5497518), wk =   0.0312500
        k(    3) = (   0.0000000   0.0000000   1.0995036), wk =   0.0312500
        k(    4) = (   0.0000000   0.0000000   1.6492553), wk =   0.0312500
        k(    5) = (   0.0000000   0.0000000  -2.1990071), wk =   0.0156250
        k(    6) = (   0.0000000   0.4285972   0.0000000), wk =   0.0312500
        k(    7) = (   0.0000000   0.4285972   0.5497518), wk =   0.0312500
        k(    8) = (   0.0000000   0.4285972   1.0995036), wk =   0.0312500
        k(    9) = (   0.0000000   0.4285972   1.6492553), wk =   0.0312500
        k(   10) = (   0.0000000   0.4285972  -2.1990071), wk =   0.0312500
        k(   11) = (   0.0000000  -0.8571944   0.0000000), wk =   0.0156250
        k(   12) = (   0.0000000  -0.8571944   0.5497518), wk =   0.0312500
        k(   13) = (   0.0000000  -0.8571944   1.0995036), wk =   0.0312500
        k(   14) = (   0.0000000  -0.8571944   1.6492553), wk =   0.0312500
        k(   15) = (   0.0000000  -0.8571944  -2.1990071), wk =   0.0156250
        k(   16) = (  -0.5000000   0.0000000   0.0000000), wk =   0.0156250
        k(   17) = (  -0.5000000   0.0000000   0.5497518), wk =   0.0312500
        k(   18) = (  -0.5000000   0.0000000   1.0995036), wk =   0.0312500
        k(   19) = (  -0.5000000   0.0000000   1.6492553), wk =   0.0312500
        k(   20) = (  -0.5000000   0.0000000  -2.1990071), wk =   0.0156250
        k(   21) = (  -0.5000000   0.4285972   0.0000000), wk =   0.0312500
        k(   22) = (  -0.5000000   0.4285972   0.5497518), wk =   0.0312500
        k(   23) = (  -0.5000000   0.4285972   1.0995036), wk =   0.0312500
        k(   24) = (  -0.5000000   0.4285972   1.6492553), wk =   0.0312500
        k(   25) = (  -0.5000000   0.4285972  -2.1990071), wk =   0.0312500
        k(   26) = (  -0.5000000  -0.8571944   0.0000000), wk =   0.0156250
        k(   27) = (  -0.5000000  -0.8571944   0.5497518), wk =   0.0312500
        k(   28) = (  -0.5000000  -0.8571944   1.0995036), wk =   0.0312500
        k(   29) = (  -0.5000000  -0.8571944   1.6492553), wk =   0.0312500
        k(   30) = (  -0.5000000  -0.8571944  -2.1990071), wk =   0.0156250
        k(   31) = (   0.0000000  -0.4285972   0.5497518), wk =   0.0312500
        k(   32) = (   0.0000000  -0.4285972   1.0995036), wk =   0.0312500
        k(   33) = (   0.0000000  -0.4285972   1.6492553), wk =   0.0312500
        k(   34) = (   0.5000000  -0.4285972   0.5497518), wk =   0.0312500
        k(   35) = (   0.5000000  -0.4285972   1.0995036), wk =   0.0312500
        k(   36) = (   0.5000000  -0.4285972   1.6492553), wk =   0.0312500

                       cryst. coord.
        k(    1) = (   0.0000000   0.0000000   0.0000000), wk =   0.0156250
        k(    2) = (   0.0000000   0.0000000   0.1250000), wk =   0.0312500
        k(    3) = (   0.0000000   0.0000000   0.2500000), wk =   0.0312500
        k(    4) = (   0.0000000   0.0000000   0.3750000), wk =   0.0312500
        k(    5) = (   0.0000000   0.0000000  -0.5000000), wk =   0.0156250
        k(    6) = (   0.0000000   0.2500000   0.0000000), wk =   0.0312500
        k(    7) = (   0.0000000   0.2500000   0.1250000), wk =   0.0312500
        k(    8) = (   0.0000000   0.2500000   0.2500000), wk =   0.0312500
        k(    9) = (   0.0000000   0.2500000   0.3750000), wk =   0.0312500
        k(   10) = (   0.0000000   0.2500000  -0.5000000), wk =   0.0312500
        k(   11) = (   0.0000000  -0.5000000   0.0000000), wk =   0.0156250
        k(   12) = (   0.0000000  -0.5000000   0.1250000), wk =   0.0312500
        k(   13) = (   0.0000000  -0.5000000   0.2500000), wk =   0.0312500
        k(   14) = (   0.0000000  -0.5000000   0.3750000), wk =   0.0312500
        k(   15) = (   0.0000000  -0.5000000  -0.5000000), wk =   0.0156250
        k(   16) = (  -0.5000000   0.0000000   0.0000000), wk =   0.0156250
        k(   17) = (  -0.5000000   0.0000000   0.1250000), wk =   0.0312500
        k(   18) = (  -0.5000000   0.0000000   0.2500000), wk =   0.0312500
        k(   19) = (  -0.5000000   0.0000000   0.3750000), wk =   0.0312500
        k(   20) = (  -0.5000000   0.0000000  -0.5000000), wk =   0.0156250
        k(   21) = (  -0.5000000   0.2500000   0.0000000), wk =   0.0312500
        k(   22) = (  -0.5000000   0.2500000   0.1250000), wk =   0.0312500
        k(   23) = (  -0.5000000   0.2500000   0.2500000), wk =   0.0312500
        k(   24) = (  -0.5000000   0.2500000   0.3750000), wk =   0.0312500
        k(   25) = (  -0.5000000   0.2500000  -0.5000000), wk =   0.0312500
        k(   26) = (  -0.5000000  -0.5000000   0.0000000), wk =   0.0156250
        k(   27) = (  -0.5000000  -0.5000000   0.1250000), wk =   0.0312500
        k(   28) = (  -0.5000000  -0.5000000   0.2500000), wk =   0.0312500
        k(   29) = (  -0.5000000  -0.5000000   0.3750000), wk =   0.0312500
        k(   30) = (  -0.5000000  -0.5000000  -0.5000000), wk =   0.0156250
        k(   31) = (   0.0000000  -0.2500000   0.1250000), wk =   0.0312500
        k(   32) = (   0.0000000  -0.2500000   0.2500000), wk =   0.0312500
        k(   33) = (   0.0000000  -0.2500000   0.3750000), wk =   0.0312500
        k(   34) = (   0.5000000  -0.2500000   0.1250000), wk =   0.0312500
        k(   35) = (   0.5000000  -0.2500000   0.2500000), wk =   0.0312500
        k(   36) = (   0.5000000  -0.2500000   0.3750000), wk =   0.0312500

     Dense  grid:  1363917 G-vectors     FFT dimensions: ( 270, 160,  64)

     Smooth grid:   482247 G-vectors     FFT dimensions: ( 192, 120,  45)

     Dynamical RAM for                 wfc:     105.76 MB

     Dynamical RAM for     wfc (w. buffer):    7720.69 MB

     Dynamical RAM for           str. fact:      83.25 MB

     Dynamical RAM for           local pot:       0.00 MB

     Dynamical RAM for          nlocal pot:     353.16 MB

     Dynamical RAM for                qrad:       7.03 MB

     Dynamical RAM for          rho,v,vnew:     251.43 MB

     Dynamical RAM for               rhoin:      83.81 MB

     Dynamical RAM for            rho*nmix:     665.98 MB

     Dynamical RAM for           G-vectors:      81.72 MB

     Dynamical RAM for          h,s,v(r/c):       2.42 MB

     Dynamical RAM for          <psi|beta>:       0.67 MB

     Dynamical RAM for                 psi:     211.53 MB

     Dynamical RAM for                hpsi:     211.53 MB

     Dynamical RAM for      wfcinit/wfcrot:     211.83 MB

     Estimated static dynamical RAM per process >       8.61 GB

     Estimated max dynamical RAM per process >       9.67 GB
     Generating pointlists ...
     new r_m :   0.0324 (alat units)  1.2540 (a.u.) for type    1
     new r_m :   0.0355 (alat units)  1.3733 (a.u.) for type    2
     new r_m :   0.0156 (alat units)  0.6017 (a.u.) for type    3
     new r_m :   0.0094 (alat units)  0.3630 (a.u.) for type    4

     Initial potential from superposition of free atoms

     starting charge     191.9796, renormalised to     192.0000

     negative rho (up, down):  1.055E-04 2.951E-05
     Starting wfcs are  128 randomized atomic wfcs

     total cpu time spent up to now is     1832.3 secs

     per-process dynamical memory:   565.1 Mb

     Self-consistent Calculation

     iteration #  1     ecut=    60.00 Ry     beta= 0.70
     Davidson diagonalization with overlap

---- Real-time Memory Report at c_bands before calling an iterative solver
          8778 MiB given to the printing process from OS
           635 MiB allocation reported by mallinfo(arena+hblkhd)
         11536 MiB available memory on the node where the printing process lives
------------------
     ethr =  1.00E-02,  avg # of iterations =  6.4

     total cpu time spent up to now is     9431.3 secs

     total energy              =   -1522.17524368 Ry
     estimated scf accuracy    <      43.10881495 Ry

     total magnetization       =    18.97 Bohr mag/cell
     absolute magnetization    =    19.90 Bohr mag/cell

     iteration #  2     ecut=    60.00 Ry     beta= 0.70
     Davidson diagonalization with overlap

---- Real-time Memory Report at c_bands before calling an iterative solver
          9370 MiB given to the printing process from OS
           912 MiB allocation reported by mallinfo(arena+hblkhd)
         17121 MiB available memory on the node where the printing process lives
------------------
     ethr =  1.00E-02,  avg # of iterations =  7.5

     total cpu time spent up to now is    16373.3 secs

     total energy              =   -1491.89271645 Ry
     estimated scf accuracy    <     414.97884180 Ry

     total magnetization       =     8.95 Bohr mag/cell
     absolute magnetization    =     9.37 Bohr mag/cell

     iteration #  3     ecut=    60.00 Ry     beta= 0.70
     Davidson diagonalization with overlap

---- Real-time Memory Report at c_bands before calling an iterative solver
          9399 MiB given to the printing process from OS
           942 MiB allocation reported by mallinfo(arena+hblkhd)
         17171 MiB available memory on the node where the printing process lives
------------------
     ethr =  1.00E-02,  avg # of iterations =  6.9

     total cpu time spent up to now is    23888.0 secs

     total energy              =   -1530.25647011 Ry
     estimated scf accuracy    <      64.37454657 Ry

     total magnetization       =     9.70 Bohr mag/cell
     absolute magnetization    =    10.81 Bohr mag/cell

     iteration #  4     ecut=    60.00 Ry     beta= 0.70
     Davidson diagonalization with overlap

---- Real-time Memory Report at c_bands before calling an iterative solver
          9429 MiB given to the printing process from OS
           971 MiB allocation reported by mallinfo(arena+hblkhd)
         16844 MiB available memory on the node where the printing process lives
------------------
     ethr =  1.00E-02,  avg # of iterations =  5.4

     total cpu time spent up to now is    29322.7 secs

     total energy              =   -1531.93384322 Ry
     estimated scf accuracy    <     133.04669193 Ry

     total magnetization       =     6.96 Bohr mag/cell
     absolute magnetization    =     8.05 Bohr mag/cell

     iteration #  5     ecut=    60.00 Ry     beta= 0.70
     Davidson diagonalization with overlap

---- Real-time Memory Report at c_bands before calling an iterative solver
          9458 MiB given to the printing process from OS
          1001 MiB allocation reported by mallinfo(arena+hblkhd)
         16929 MiB available memory on the node where the printing process lives
------------------
     ethr =  1.00E-02,  avg # of iterations =  4.6

     total cpu time spent up to now is    33866.5 secs

     total energy              =   -1537.78239534 Ry
     estimated scf accuracy    <      62.83747168 Ry

     total magnetization       =     5.44 Bohr mag/cell
     absolute magnetization    =     7.04 Bohr mag/cell

     iteration #  6     ecut=    60.00 Ry     beta= 0.70
     Davidson diagonalization with overlap

---- Real-time Memory Report at c_bands before calling an iterative solver
          9488 MiB given to the printing process from OS
          1030 MiB allocation reported by mallinfo(arena+hblkhd)
         16680 MiB available memory on the node where the printing process lives
------------------
     ethr =  1.00E-02,  avg # of iterations =  4.5

     total cpu time spent up to now is    38234.3 secs

     total energy              =   -1541.37831164 Ry
     estimated scf accuracy    <      12.81457891 Ry

     total magnetization       =     7.67 Bohr mag/cell
     absolute magnetization    =     8.98 Bohr mag/cell

     iteration #  7     ecut=    60.00 Ry     beta= 0.70
     Davidson diagonalization with overlap

---- Real-time Memory Report at c_bands before calling an iterative solver
          9517 MiB given to the printing process from OS
          1060 MiB allocation reported by mallinfo(arena+hblkhd)
         16769 MiB available memory on the node where the printing process lives
------------------
     ethr =  6.67E-03,  avg # of iterations =  1.9

     total cpu time spent up to now is    41885.5 secs

     total energy              =   -1540.83605818 Ry
     estimated scf accuracy    <      10.24959813 Ry

     total magnetization       =     7.65 Bohr mag/cell
     absolute magnetization    =     9.21 Bohr mag/cell

     iteration #  8     ecut=    60.00 Ry     beta= 0.70
     Davidson diagonalization with overlap

---- Real-time Memory Report at c_bands before calling an iterative solver
          9546 MiB given to the printing process from OS
          1089 MiB allocation reported by mallinfo(arena+hblkhd)
         16846 MiB available memory on the node where the printing process lives
------------------
