
     Program PWSCF v.7.4 starts on 25Nov2025 at  1: 0:46 

     This program is part of the open-source Quantum ESPRESSO suite
     for quantum simulation of materials; please cite
         "P. Giannozzi et al., J. Phys.:Condens. Matter 21 395502 (2009);
         "P. Giannozzi et al., J. Phys.:Condens. Matter 29 465901 (2017);
         "P. Giannozzi et al., J. Chem. Phys. 152 154105 (2020);
          URL http://www.quantum-espresso.org", 
     in publications or presentations arising from this work. More details at
     http://www.quantum-espresso.org/quote

     Parallel version (MPI & OpenMP), running on       8 processor cores
     Number of MPI processes:                 1
     Threads/MPI process:                     8

     MPI processes distributed on     1 nodes
     25964 MiB available memory on the printing compute node when the environment starts

     Waiting for input...
     Reading input from standard input

     Current dimensions of program PWSCF are:
     Max number of different atomic species (ntypx) = 10
     Max number of k-points (npk) =  40000
     Max angular momentum in pseudopotentials (lmaxx) =  4

     Subspace diagonalization in iterative solution of the eigenvalue problem:
     a serial algorithm will be used


     G-vector sticks info
     --------------------
     sticks:   dense  smooth     PW     G-vecs:    dense   smooth      PW
     Sum       16693   16693   4599               482247   482247   69897

     Using Slab Decomposition



     bravais-lattice index     =            0
     lattice parameter (alat)  =      38.6872  a.u.
     unit-cell volume          =    7679.5612 (a.u.)^3
     number of atoms/cell      =           28
     number of atomic types    =            4
     number of electrons       =       192.00 (up:  96.00, down:  96.00)
     number of Kohn-Sham states=           96
     kinetic-energy cutoff     =      60.0000  Ry
     charge density cutoff     =     240.0000  Ry
     scf convergence threshold =      1.0E-06
     mixing beta               =       0.1000
     number of iterations used =            8  local-TF  mixing
     Exchange-correlation= PBE
                           (   1   4   3   4   0   0   0)

     celldm(1)=  38.687214  celldm(2)=   0.000000  celldm(3)=   0.000000
     celldm(4)=   0.000000  celldm(5)=   0.000000  celldm(6)=   0.000000

     crystal axes: (cart. coord. in units of alat)
               a(1) = (   1.000000   0.000000   0.000000 )  
               a(2) = (   0.000000   0.583298   0.000000 )  
               a(3) = (   0.000000   0.000000   0.227375 )  

     reciprocal axes: (cart. coord. in units 2 pi/alat)
               b(1) = (  1.000000  0.000000  0.000000 )  
               b(2) = (  0.000000  1.714389  0.000000 )  
               b(3) = (  0.000000  0.000000  4.398014 )  


     PseudoPot. # 1 for Li read from file:
     ./Li.upf
     MD5 check sum: dbcf0ea72988e720c8c712b432d51b0d
     Pseudo is Norm-conserving, Zval =  3.0
     Generated using ONCVPSP code by D. R. Hamann
     Using radial grid of 1944 points,  4 beta functions with: 
                l(1) =   0
                l(2) =   0
                l(3) =   1
                l(4) =   1

     PseudoPot. # 2 for Fe read from file:
     ./Fe.upf
     MD5 check sum: a5f07f5dca5be6cacb81ceb54992e4ae
     Pseudo is Norm-conserving + core correction, Zval = 16.0
     Generated using ONCVPSP code by D. R. Hamann
     Using radial grid of 1426 points,  6 beta functions with: 
                l(1) =   0
                l(2) =   0
                l(3) =   1
                l(4) =   1
                l(5) =   2
                l(6) =   2

     PseudoPot. # 3 for P  read from file:
     ./P.upf
     MD5 check sum: c802fd0635a0ed1615482a1b584dae5b
     Pseudo is Norm-conserving + core correction, Zval =  5.0
     Generated using ONCVPSP code by D. R. Hamann
     Using radial grid of 1298 points,  6 beta functions with: 
                l(1) =   0
                l(2) =   0
                l(3) =   1
                l(4) =   1
                l(5) =   2
                l(6) =   2

     PseudoPot. # 4 for O  read from file:
     ./O.upf
     MD5 check sum: 3e3f909f7470e8921608ab6b1f57bbae
     Pseudo is Norm-conserving + core correction, Zval =  6.0
     Generated using ONCVPSP code by D. R. Hamann
     Using radial grid of  936 points,  5 beta functions with: 
                l(1) =   0
                l(2) =   0
                l(3) =   1
                l(4) =   1
                l(5) =   2

     atomic species   valence    mass     pseudopotential
     Li                3.00     6.94000     Li( 1.00)
     Fe               16.00    55.84500     Fe( 1.00)
     P                 5.00    30.97400     P ( 1.00)
     O                 6.00    15.99900     O ( 1.00)

     Starting magnetic structure 
     atomic species   magnetization
     Li              0.000
     Fe              0.700
     P               0.000
     O               0.000

     No symmetry found


                                    s                        frac. trans.

      isym =  1     identity                                     

 cryst.   s( 1) = (     1          0          0      )
                  (     0          1          0      )
                  (     0          0          1      )

 cart.    s( 1) = (  1.0000000  0.0000000  0.0000000 )
                  (  0.0000000  1.0000000  0.0000000 )
                  (  0.0000000  0.0000000  1.0000000 )


   Cartesian axes

     site n.     atom                  positions (alat units)
         1        Li     tau(   1) = (   0.0000000   0.0000000   0.0000000  )
         2        Li     tau(   2) = (   0.1136877   0.1458247   0.2500001  )
         3        Li     tau(   3) = (   0.1136877   0.0000000   0.2500001  )
         4        Li     tau(   4) = (   0.0000000   0.1458247   0.0000000  )
         5        Fe     tau(   5) = (   0.1204783   0.0729123   0.3905758  )
         6        Fe     tau(   6) = (   0.0067906   0.2187370   0.3594245  )
         7        Fe     tau(   7) = (   0.2205844   0.0729123   0.1405757  )
         8        Fe     tau(   8) = (   0.1068971   0.2187370   0.1094244  )
         9        P      tau(   9) = (   0.0951843   0.0729123   0.0469330  )
        10        P      tau(  10) = (   0.2088720   0.2187370   0.2030666  )
        11        P      tau(  11) = (   0.0185035   0.0729123   0.2969331  )
        12        P      tau(  12) = (   0.1321907   0.2187370   0.4530667  )
        13        O      tau(  13) = (   0.1693461   0.0729123   0.0471152  )
        14        O      tau(  14) = (   0.1622859   0.1591114   0.4170773  )
        15        O      tau(  15) = (   0.1622859   0.2783622   0.4170773  )
        16        O      tau(  16) = (   0.0580294   0.2187370   0.4528845  )
        17        O      tau(  17) = (   0.1614057   0.2187370   0.0221542  )
        18        O      tau(  18) = (   0.0556584   0.2187370   0.2028844  )
        19        O      tau(  19) = (   0.0650896   0.0132872   0.0829229  )
        20        O      tau(  20) = (   0.0485981   0.1325375   0.3329225  )
        21        O      tau(  21) = (   0.1787773   0.1591114   0.1670772  )
        22        O      tau(  22) = (   0.1787773   0.2783622   0.1670772  )
        23        O      tau(  23) = (   0.0659698   0.0729123   0.4778455  )
        24        O      tau(  24) = (   0.0477179   0.0729123   0.2278459  )
        25        O      tau(  25) = (   0.1796576   0.2187370   0.2721543  )
        26        O      tau(  26) = (   0.1717171   0.0729123   0.2971153  )
        27        O      tau(  27) = (   0.0485981   0.0132872   0.3329225  )
        28        O      tau(  28) = (   0.0650896   0.1325375   0.0829229  )

   Crystallographic axes

     site n.     atom                  positions (cryst. coord.)
         1        Li     tau(   1) = (  0.0000000  0.0000000  0.0000000  )
         2        Li     tau(   2) = (  0.1136877  0.2500002  1.0995040  )
         3        Li     tau(   3) = (  0.1136877  0.0000000  1.0995040  )
         4        Li     tau(   4) = (  0.0000000  0.2500002  0.0000000  )
         5        Fe     tau(   5) = (  0.1204783  0.1250001  1.7177577  )
         6        Fe     tau(   6) = (  0.0067906  0.3750003  1.5807542  )
         7        Fe     tau(   7) = (  0.2205844  0.1250001  0.6182537  )
         8        Fe     tau(   8) = (  0.1068971  0.3750003  0.4812502  )
         9        P      tau(   9) = (  0.0951843  0.1250001  0.2064118  )
        10        P      tau(  10) = (  0.2088720  0.3750003  0.8930900  )
        11        P      tau(  11) = (  0.0185035  0.1250001  1.3059158  )
        12        P      tau(  12) = (  0.1321907  0.3750003  1.9925940  )
        13        O      tau(  13) = (  0.1693461  0.1250001  0.2072131  )
        14        O      tau(  14) = (  0.1622859  0.2727787  1.8343119  )
        15        O      tau(  15) = (  0.1622859  0.4772210  1.8343119  )
        16        O      tau(  16) = (  0.0580294  0.3750003  1.9917927  )
        17        O      tau(  17) = (  0.1614057  0.3750003  0.0974346  )
        18        O      tau(  18) = (  0.0556584  0.3750003  0.8922887  )
        19        O      tau(  19) = (  0.0650896  0.0227794  0.3646961  )
        20        O      tau(  20) = (  0.0485981  0.2272208  1.4641979  )
        21        O      tau(  21) = (  0.1787773  0.2727787  0.7348079  )
        22        O      tau(  22) = (  0.1787773  0.4772210  0.7348079  )
        23        O      tau(  23) = (  0.0659698  0.1250001  2.1015712  )
        24        O      tau(  24) = (  0.0477179  0.1250001  1.0020694  )
        25        O      tau(  25) = (  0.1796576  0.3750003  1.1969386  )
        26        O      tau(  26) = (  0.1717171  0.1250001  1.3067171  )
        27        O      tau(  27) = (  0.0485981  0.0227794  1.4641979  )
        28        O      tau(  28) = (  0.0650896  0.2272208  0.3646961  )

     number of k points=     8
                       cart. coord. in units 2pi/alat
        k(    1) = (   0.0000000   0.0000000   0.0000000), wk =   0.1250000
        k(    2) = (   0.0000000   0.0000000  -2.1990071), wk =   0.1250000
        k(    3) = (   0.0000000  -0.8571944   0.0000000), wk =   0.1250000
        k(    4) = (   0.0000000  -0.8571944  -2.1990071), wk =   0.1250000
        k(    5) = (  -0.5000000   0.0000000   0.0000000), wk =   0.1250000
        k(    6) = (  -0.5000000   0.0000000  -2.1990071), wk =   0.1250000
        k(    7) = (  -0.5000000  -0.8571944   0.0000000), wk =   0.1250000
        k(    8) = (  -0.5000000  -0.8571944  -2.1990071), wk =   0.1250000

                       cryst. coord.
        k(    1) = (   0.0000000   0.0000000   0.0000000), wk =   0.1250000
        k(    2) = (   0.0000000   0.0000000  -0.5000000), wk =   0.1250000
        k(    3) = (   0.0000000  -0.5000000   0.0000000), wk =   0.1250000
        k(    4) = (   0.0000000  -0.5000000  -0.5000000), wk =   0.1250000
        k(    5) = (  -0.5000000   0.0000000   0.0000000), wk =   0.1250000
        k(    6) = (  -0.5000000   0.0000000  -0.5000000), wk =   0.1250000
        k(    7) = (  -0.5000000  -0.5000000   0.0000000), wk =   0.1250000
        k(    8) = (  -0.5000000  -0.5000000  -0.5000000), wk =   0.1250000

     Dense  grid:   482247 G-vectors     FFT dimensions: ( 192, 120,  45)

     Dynamical RAM for                 wfc:      88.29 MB

     Dynamical RAM for     wfc (w. buffer):    1500.91 MB

     Dynamical RAM for           str. fact:      29.43 MB

     Dynamical RAM for           local pot:       0.00 MB

     Dynamical RAM for          nlocal pot:     353.16 MB

     Dynamical RAM for                qrad:       4.98 MB

     Dynamical RAM for          rho,v,vnew:      91.61 MB

     Dynamical RAM for               rhoin:      30.54 MB

     Dynamical RAM for            rho*nmix:     235.47 MB

     Dynamical RAM for           G-vectors:      31.27 MB

     Dynamical RAM for          h,s,v(r/c):       1.69 MB

     Dynamical RAM for          <psi|beta>:       0.56 MB

     Dynamical RAM for                 psi:     176.58 MB

     Dynamical RAM for                hpsi:     176.58 MB

     Dynamical RAM for      wfcinit/wfcrot:     176.79 MB

     Estimated static dynamical RAM per process >       2.08 GB

     Estimated max dynamical RAM per process >       2.65 GB

     Check: negative core charge=   -0.000013
     Generating pointlists ...
     new r_m :   0.0324 (alat units)  1.2540 (a.u.) for type    1
     new r_m :   0.0355 (alat units)  1.3733 (a.u.) for type    2
     new r_m :   0.0156 (alat units)  0.6017 (a.u.) for type    3
     new r_m :   0.0094 (alat units)  0.3630 (a.u.) for type    4

     Initial potential from superposition of free atoms

     starting charge     191.9796, renormalised to     192.0000

     negative rho (up, down):  1.362E-03 2.338E-04
     Starting wfcs are  128 randomized atomic wfcs

     total cpu time spent up to now is      338.8 secs

     Self-consistent Calculation

     iteration #  1     ecut=    60.00 Ry     beta= 0.10
     Davidson diagonalization with overlap

---- Real-time Memory Report at c_bands before calling an iterative solver
          2242 MiB given to the printing process from OS
         -1961 MiB allocation reported by mallinfo(arena+hblkhd)
         23483 MiB available memory on the node where the printing process lives
------------------
     ethr =  1.00E-02,  avg # of iterations =  6.4

     negative rho (up, down):  5.466E-04 6.843E-05

     total cpu time spent up to now is     1461.6 secs

     total energy              =   -1546.08947560 Ry
     estimated scf accuracy    <      39.06285985 Ry

     total magnetization       =     0.00 Bohr mag/cell
     absolute magnetization    =    21.72 Bohr mag/cell

     iteration #  2     ecut=    60.00 Ry     beta= 0.10
     Davidson diagonalization with overlap

---- Real-time Memory Report at c_bands before calling an iterative solver
          2501 MiB given to the printing process from OS
         -1651 MiB allocation reported by mallinfo(arena+hblkhd)
         23273 MiB available memory on the node where the printing process lives
------------------
     ethr =  1.00E-02,  avg # of iterations =  1.0

     negative rho (up, down):  1.062E-02 8.742E-03

     total cpu time spent up to now is     2016.1 secs

     total energy              =   -1536.37708994 Ry
     estimated scf accuracy    <      33.83994393 Ry

     total magnetization       =     0.00 Bohr mag/cell
     absolute magnetization    =    21.76 Bohr mag/cell

     iteration #  3     ecut=    60.00 Ry     beta= 0.10
     Davidson diagonalization with overlap

---- Real-time Memory Report at c_bands before calling an iterative solver
          2616 MiB given to the printing process from OS
         -1621 MiB allocation reported by mallinfo(arena+hblkhd)
         23351 MiB available memory on the node where the printing process lives
------------------
     ethr =  1.00E-02,  avg # of iterations =  5.7

     negative rho (up, down):  4.173E-03 3.583E-03

     total cpu time spent up to now is     2925.7 secs

     total energy              =   -1542.09442625 Ry
     estimated scf accuracy    <       5.77874583 Ry

     total magnetization       =     0.00 Bohr mag/cell
     absolute magnetization    =    14.85 Bohr mag/cell

     iteration #  4     ecut=    60.00 Ry     beta= 0.10
     Davidson diagonalization with overlap

---- Real-time Memory Report at c_bands before calling an iterative solver
          2645 MiB given to the printing process from OS
         -1592 MiB allocation reported by mallinfo(arena+hblkhd)
         23318 MiB available memory on the node where the printing process lives
------------------
     ethr =  3.01E-03,  avg # of iterations =  3.9

     negative rho (up, down):  5.088E-03 4.398E-03

     total cpu time spent up to now is     3545.1 secs

     total energy              =   -1542.59776939 Ry
     estimated scf accuracy    <       5.19318110 Ry

     total magnetization       =     0.00 Bohr mag/cell
     absolute magnetization    =    14.62 Bohr mag/cell

     iteration #  5     ecut=    60.00 Ry     beta= 0.10
     Davidson diagonalization with overlap

---- Real-time Memory Report at c_bands before calling an iterative solver
          2675 MiB given to the printing process from OS
         -1562 MiB allocation reported by mallinfo(arena+hblkhd)
         23088 MiB available memory on the node where the printing process lives
------------------
     ethr =  2.70E-03,  avg # of iterations =  4.8

     negative rho (up, down):  1.354E-05 1.264E-05

     total cpu time spent up to now is     4197.5 secs

     total energy              =   -1540.58247153 Ry
     estimated scf accuracy    <       8.60973828 Ry

     total magnetization       =    -0.00 Bohr mag/cell
     absolute magnetization    =    13.43 Bohr mag/cell

     iteration #  6     ecut=    60.00 Ry     beta= 0.10
     Davidson diagonalization with overlap

---- Real-time Memory Report at c_bands before calling an iterative solver
          2704 MiB given to the printing process from OS
         -1533 MiB allocation reported by mallinfo(arena+hblkhd)
         23074 MiB available memory on the node where the printing process lives
------------------
     ethr =  2.70E-03,  avg # of iterations =  6.8

     negative rho (up, down):  9.746E-04 8.228E-04

     total cpu time spent up to now is     5094.8 secs

     total energy              =   -1542.37591759 Ry
     estimated scf accuracy    <       8.32370182 Ry

     total magnetization       =     0.00 Bohr mag/cell
     absolute magnetization    =    12.29 Bohr mag/cell

     iteration #  7     ecut=    60.00 Ry     beta= 0.10
     Davidson diagonalization with overlap

---- Real-time Memory Report at c_bands before calling an iterative solver
          2734 MiB given to the printing process from OS
         -1503 MiB allocation reported by mallinfo(arena+hblkhd)
         23074 MiB available memory on the node where the printing process lives
------------------
     ethr =  2.70E-03,  avg # of iterations =  2.0

     negative rho (up, down):  6.452E-04 5.317E-04

     total cpu time spent up to now is     5704.2 secs

     total energy              =   -1542.91223770 Ry
     estimated scf accuracy    <       4.90922318 Ry

     total magnetization       =    -0.00 Bohr mag/cell
     absolute magnetization    =    12.13 Bohr mag/cell

     iteration #  8     ecut=    60.00 Ry     beta= 0.10
     Davidson diagonalization with overlap

---- Real-time Memory Report at c_bands before calling an iterative solver
          2763 MiB given to the printing process from OS
         -1474 MiB allocation reported by mallinfo(arena+hblkhd)
         23040 MiB available memory on the node where the printing process lives
------------------
     ethr =  2.56E-03,  avg # of iterations =  1.0

     negative rho (up, down):  6.708E-04 5.461E-04

     total cpu time spent up to now is     6268.8 secs

     total energy              =   -1543.65715118 Ry
     estimated scf accuracy    <       6.18778018 Ry

     total magnetization       =    -0.00 Bohr mag/cell
     absolute magnetization    =    11.92 Bohr mag/cell

     iteration #  9     ecut=    60.00 Ry     beta= 0.10
     Davidson diagonalization with overlap

---- Real-time Memory Report at c_bands before calling an iterative solver
          2793 MiB given to the printing process from OS
         -1445 MiB allocation reported by mallinfo(arena+hblkhd)
         23327 MiB available memory on the node where the printing process lives
------------------
     ethr =  2.56E-03,  avg # of iterations =  2.1

     negative rho (up, down):  2.136E-05 2.144E-05

     total cpu time spent up to now is     6885.1 secs

     total energy              =   -1540.98295557 Ry
     estimated scf accuracy    <      10.25778799 Ry

     total magnetization       =    -0.00 Bohr mag/cell
     absolute magnetization    =    11.64 Bohr mag/cell

     iteration # 10     ecut=    60.00 Ry     beta= 0.10
     Davidson diagonalization with overlap

---- Real-time Memory Report at c_bands before calling an iterative solver
          2822 MiB given to the printing process from OS
         -1415 MiB allocation reported by mallinfo(arena+hblkhd)
         23392 MiB available memory on the node where the printing process lives
------------------
     ethr =  2.56E-03,  avg # of iterations = 10.7

     negative rho (up, down):  1.307E-05 1.297E-05

     total cpu time spent up to now is     7844.9 secs

     total energy              =   -1542.08353669 Ry
     estimated scf accuracy    <      15.56876421 Ry

     total magnetization       =    -0.00 Bohr mag/cell
     absolute magnetization    =     8.11 Bohr mag/cell

     iteration # 11     ecut=    60.00 Ry     beta= 0.10
     Davidson diagonalization with overlap

---- Real-time Memory Report at c_bands before calling an iterative solver
          2852 MiB given to the printing process from OS
         -1415 MiB allocation reported by mallinfo(arena+hblkhd)
         24056 MiB available memory on the node where the printing process lives
------------------
     ethr =  2.56E-03,  avg # of iterations =  2.4

     negative rho (up, down):  1.146E-05 1.140E-05

     total cpu time spent up to now is     8428.2 secs

     total energy              =   -1542.07429567 Ry
     estimated scf accuracy    <      10.75671714 Ry

     total magnetization       =    -0.00 Bohr mag/cell
     absolute magnetization    =     8.26 Bohr mag/cell

     iteration # 12     ecut=    60.00 Ry     beta= 0.10
     Davidson diagonalization with overlap

---- Real-time Memory Report at c_bands before calling an iterative solver
          2852 MiB given to the printing process from OS
         -1415 MiB allocation reported by mallinfo(arena+hblkhd)
         23735 MiB available memory on the node where the printing process lives
------------------
     ethr =  2.56E-03,  avg # of iterations =  1.0

     negative rho (up, down):  8.078E-06 8.164E-06

     total cpu time spent up to now is     8965.3 secs

     total energy              =   -1542.23233361 Ry
     estimated scf accuracy    <       9.91859394 Ry

     total magnetization       =     0.00 Bohr mag/cell
     absolute magnetization    =     8.29 Bohr mag/cell

     iteration # 13     ecut=    60.00 Ry     beta= 0.10
     Davidson diagonalization with overlap

---- Real-time Memory Report at c_bands before calling an iterative solver
          2852 MiB given to the printing process from OS
         -1415 MiB allocation reported by mallinfo(arena+hblkhd)
         23728 MiB available memory on the node where the printing process lives
------------------
     ethr =  2.56E-03,  avg # of iterations =  1.0

     negative rho (up, down):  6.195E-06 6.477E-06

     total cpu time spent up to now is     9484.6 secs

     total energy              =   -1542.24259245 Ry
     estimated scf accuracy    <       9.63671642 Ry

     total magnetization       =     0.00 Bohr mag/cell
     absolute magnetization    =     8.26 Bohr mag/cell

     iteration # 14     ecut=    60.00 Ry     beta= 0.10
     Davidson diagonalization with overlap

---- Real-time Memory Report at c_bands before calling an iterative solver
          2852 MiB given to the printing process from OS
         -1415 MiB allocation reported by mallinfo(arena+hblkhd)
         24071 MiB available memory on the node where the printing process lives
------------------
     ethr =  2.56E-03,  avg # of iterations =  2.3

     negative rho (up, down):  1.764E-06 1.792E-06

     total cpu time spent up to now is    10050.0 secs

     total energy              =   -1540.59942150 Ry
     estimated scf accuracy    <       8.29658516 Ry

     total magnetization       =     0.00 Bohr mag/cell
     absolute magnetization    =     8.11 Bohr mag/cell

     iteration # 15     ecut=    60.00 Ry     beta= 0.10
     Davidson diagonalization with overlap

---- Real-time Memory Report at c_bands before calling an iterative solver
          2852 MiB given to the printing process from OS
         -1415 MiB allocation reported by mallinfo(arena+hblkhd)
         23716 MiB available memory on the node where the printing process lives
------------------
     ethr =  2.56E-03,  avg # of iterations =  8.3

     negative rho (up, down):  1.980E-06 2.020E-06

     total cpu time spent up to now is    10973.1 secs

     total energy              =   -1542.79994005 Ry
     estimated scf accuracy    <      11.61137387 Ry

     total magnetization       =     0.00 Bohr mag/cell
     absolute magnetization    =     8.45 Bohr mag/cell

     iteration # 16     ecut=    60.00 Ry     beta= 0.10
     Davidson diagonalization with overlap

---- Real-time Memory Report at c_bands before calling an iterative solver
          2852 MiB given to the printing process from OS
         -1415 MiB allocation reported by mallinfo(arena+hblkhd)
         24095 MiB available memory on the node where the printing process lives
------------------
     ethr =  2.56E-03,  avg # of iterations =  1.2

     negative rho (up, down):  1.876E-06 1.910E-06

     total cpu time spent up to now is    11519.2 secs

     total energy              =   -1542.90834364 Ry
     estimated scf accuracy    <       9.44716674 Ry

     total magnetization       =    -0.00 Bohr mag/cell
     absolute magnetization    =     8.55 Bohr mag/cell

     iteration # 17     ecut=    60.00 Ry     beta= 0.10
     Davidson diagonalization with overlap

---- Real-time Memory Report at c_bands before calling an iterative solver
          2852 MiB given to the printing process from OS
         -1415 MiB allocation reported by mallinfo(arena+hblkhd)
         24086 MiB available memory on the node where the printing process lives
------------------
     ethr =  2.56E-03,  avg # of iterations =  1.0

     negative rho (up, down):  2.145E-06 2.190E-06

     total cpu time spent up to now is    12034.0 secs

     total energy              =   -1543.00714834 Ry
     estimated scf accuracy    <       9.54946641 Ry

     total magnetization       =    -0.00 Bohr mag/cell
     absolute magnetization    =     8.56 Bohr mag/cell

     iteration # 18     ecut=    60.00 Ry     beta= 0.10
     Davidson diagonalization with overlap

---- Real-time Memory Report at c_bands before calling an iterative solver
          2852 MiB given to the printing process from OS
         -1415 MiB allocation reported by mallinfo(arena+hblkhd)
         23898 MiB available memory on the node where the printing process lives
------------------
     ethr =  2.56E-03,  avg # of iterations =  1.0

     negative rho (up, down):  7.024E-06 7.295E-06

     total cpu time spent up to now is    12558.2 secs

     total energy              =   -1542.93957733 Ry
     estimated scf accuracy    <       9.82022008 Ry

     total magnetization       =    -0.00 Bohr mag/cell
     absolute magnetization    =     8.52 Bohr mag/cell

     iteration # 19     ecut=    60.00 Ry     beta= 0.10
     Davidson diagonalization with overlap

---- Real-time Memory Report at c_bands before calling an iterative solver
          2852 MiB given to the printing process from OS
         -1415 MiB allocation reported by mallinfo(arena+hblkhd)
         23742 MiB available memory on the node where the printing process lives
------------------
     ethr =  2.56E-03,  avg # of iterations =  1.0

     negative rho (up, down):  9.527E-06 9.952E-06

     total cpu time spent up to now is    13070.5 secs

     total energy              =   -1541.67098689 Ry
     estimated scf accuracy    <       9.61127600 Ry

     total magnetization       =    -0.00 Bohr mag/cell
     absolute magnetization    =     8.38 Bohr mag/cell

     iteration # 20     ecut=    60.00 Ry     beta= 0.10
     Davidson diagonalization with overlap

---- Real-time Memory Report at c_bands before calling an iterative solver
          2852 MiB given to the printing process from OS
         -1415 MiB allocation reported by mallinfo(arena+hblkhd)
         23916 MiB available memory on the node where the printing process lives
------------------
     ethr =  2.56E-03,  avg # of iterations =  5.1

     negative rho (up, down):  2.031E-06 2.078E-06

     total cpu time spent up to now is    13749.7 secs

     total energy              =   -1542.26578568 Ry
     estimated scf accuracy    <       1.28108365 Ry

     total magnetization       =    -0.00 Bohr mag/cell
     absolute magnetization    =     9.49 Bohr mag/cell

     iteration # 21     ecut=    60.00 Ry     beta= 0.10
     Davidson diagonalization with overlap

---- Real-time Memory Report at c_bands before calling an iterative solver
          2852 MiB given to the printing process from OS
         -1415 MiB allocation reported by mallinfo(arena+hblkhd)
         23723 MiB available memory on the node where the printing process lives
------------------
     ethr =  6.67E-04,  avg # of iterations =  4.9

     negative rho (up, down):  2.886E-06 2.991E-06

     total cpu time spent up to now is    14398.2 secs

     total energy              =   -1542.38576871 Ry
     estimated scf accuracy    <       1.50241211 Ry

     total magnetization       =    -0.00 Bohr mag/cell
     absolute magnetization    =     9.53 Bohr mag/cell

     iteration # 22     ecut=    60.00 Ry     beta= 0.10
     Davidson diagonalization with overlap

---- Real-time Memory Report at c_bands before calling an iterative solver
          2852 MiB given to the printing process from OS
         -1415 MiB allocation reported by mallinfo(arena+hblkhd)
         23671 MiB available memory on the node where the printing process lives
------------------
     ethr =  6.67E-04,  avg # of iterations =  1.6

     negative rho (up, down):  6.994E-07 7.127E-07

     total cpu time spent up to now is    14948.2 secs

     total energy              =   -1542.51266884 Ry
     estimated scf accuracy    <       1.69411020 Ry

     total magnetization       =    -0.00 Bohr mag/cell
     absolute magnetization    =     9.32 Bohr mag/cell

     iteration # 23     ecut=    60.00 Ry     beta= 0.10
     Davidson diagonalization with overlap

---- Real-time Memory Report at c_bands before calling an iterative solver
          2852 MiB given to the printing process from OS
         -1415 MiB allocation reported by mallinfo(arena+hblkhd)
         23720 MiB available memory on the node where the printing process lives
------------------
     ethr =  6.67E-04,  avg # of iterations =  7.4

     negative rho (up, down):  7.140E-07 7.210E-07

     total cpu time spent up to now is    15672.9 secs

     total energy              =   -1542.13334466 Ry
     estimated scf accuracy    <       5.28034247 Ry

     total magnetization       =     0.00 Bohr mag/cell
     absolute magnetization    =     7.71 Bohr mag/cell

     iteration # 24     ecut=    60.00 Ry     beta= 0.10
     Davidson diagonalization with overlap

---- Real-time Memory Report at c_bands before calling an iterative solver
          2852 MiB given to the printing process from OS
         -1415 MiB allocation reported by mallinfo(arena+hblkhd)
         23883 MiB available memory on the node where the printing process lives
------------------
     ethr =  6.67E-04,  avg # of iterations =  9.5

     negative rho (up, down):  6.020E-07 6.042E-07

     total cpu time spent up to now is    16416.9 secs

     total energy              =   -1542.30959398 Ry
     estimated scf accuracy    <       0.63343560 Ry

     total magnetization       =     0.00 Bohr mag/cell
     absolute magnetization    =     8.88 Bohr mag/cell

     iteration # 25     ecut=    60.00 Ry     beta= 0.10
     Davidson diagonalization with overlap

---- Real-time Memory Report at c_bands before calling an iterative solver
          2852 MiB given to the printing process from OS
         -1415 MiB allocation reported by mallinfo(arena+hblkhd)
         23952 MiB available memory on the node where the printing process lives
------------------
     ethr =  3.30E-04,  avg # of iterations =  4.6

     negative rho (up, down):  1.471E-07 1.470E-07

     total cpu time spent up to now is    17021.1 secs

     total energy              =   -1542.31719845 Ry
     estimated scf accuracy    <       0.34623198 Ry

     total magnetization       =     0.00 Bohr mag/cell
     absolute magnetization    =     8.47 Bohr mag/cell

     iteration # 26     ecut=    60.00 Ry     beta= 0.10
     Davidson diagonalization with overlap

---- Real-time Memory Report at c_bands before calling an iterative solver
          2852 MiB given to the printing process from OS
         -1415 MiB allocation reported by mallinfo(arena+hblkhd)
         23881 MiB available memory on the node where the printing process lives
------------------
     ethr =  1.80E-04,  avg # of iterations =  8.8

     negative rho (up, down):  5.984E-07 6.036E-07

     total cpu time spent up to now is    17879.3 secs

     total energy              =   -1542.22953749 Ry
     estimated scf accuracy    <       1.77745034 Ry

     total magnetization       =     0.00 Bohr mag/cell
     absolute magnetization    =     7.89 Bohr mag/cell

     iteration # 27     ecut=    60.00 Ry     beta= 0.10
     Davidson diagonalization with overlap

---- Real-time Memory Report at c_bands before calling an iterative solver
          2852 MiB given to the printing process from OS
         -1415 MiB allocation reported by mallinfo(arena+hblkhd)
         23718 MiB available memory on the node where the printing process lives
------------------
     ethr =  1.80E-04,  avg # of iterations =  8.1

     negative rho (up, down):  6.802E-07 6.909E-07

     total cpu time spent up to now is    18751.1 secs

     total energy              =   -1542.33528465 Ry
     estimated scf accuracy    <       0.45253321 Ry

     total magnetization       =     0.00 Bohr mag/cell
     absolute magnetization    =     7.54 Bohr mag/cell

     iteration # 28     ecut=    60.00 Ry     beta= 0.10
     Davidson diagonalization with overlap

---- Real-time Memory Report at c_bands before calling an iterative solver
          2852 MiB given to the printing process from OS
         -1415 MiB allocation reported by mallinfo(arena+hblkhd)
         23727 MiB available memory on the node where the printing process lives
------------------
     ethr =  1.80E-04,  avg # of iterations =  1.9

     negative rho (up, down):  6.806E-07 6.915E-07

     total cpu time spent up to now is    19315.8 secs

     total energy              =   -1542.34101571 Ry
     estimated scf accuracy    <       0.25177675 Ry

     total magnetization       =     0.00 Bohr mag/cell
     absolute magnetization    =     7.52 Bohr mag/cell

     iteration # 29     ecut=    60.00 Ry     beta= 0.10
     Davidson diagonalization with overlap

---- Real-time Memory Report at c_bands before calling an iterative solver
          2852 MiB given to the printing process from OS
         -1415 MiB allocation reported by mallinfo(arena+hblkhd)
         23296 MiB available memory on the node where the printing process lives
------------------
     ethr =  1.31E-04,  avg # of iterations =  1.0

     negative rho (up, down):  8.038E-07 8.179E-07

     total cpu time spent up to now is    19838.4 secs

     total energy              =   -1542.34352307 Ry
     estimated scf accuracy    <       0.21701282 Ry

     total magnetization       =    -0.00 Bohr mag/cell
     absolute magnetization    =     7.51 Bohr mag/cell

     iteration # 30     ecut=    60.00 Ry     beta= 0.10
     Davidson diagonalization with overlap

---- Real-time Memory Report at c_bands before calling an iterative solver
          2852 MiB given to the printing process from OS
         -1415 MiB allocation reported by mallinfo(arena+hblkhd)
         23691 MiB available memory on the node where the printing process lives
------------------
     ethr =  1.13E-04,  avg # of iterations =  1.1

     negative rho (up, down):  3.754E-07 3.833E-07

     total cpu time spent up to now is    20357.8 secs

     total energy              =   -1542.32633873 Ry
     estimated scf accuracy    <       0.19749154 Ry

     total magnetization       =    -0.00 Bohr mag/cell
     absolute magnetization    =     7.51 Bohr mag/cell

     iteration # 31     ecut=    60.00 Ry     beta= 0.10
     Davidson diagonalization with overlap

---- Real-time Memory Report at c_bands before calling an iterative solver
          2852 MiB given to the printing process from OS
         -1415 MiB allocation reported by mallinfo(arena+hblkhd)
         23305 MiB available memory on the node where the printing process lives
------------------
     c_bands:  1 eigenvalues not converged
     c_bands:  1 eigenvalues not converged
     c_bands:  1 eigenvalues not converged
     c_bands:  1 eigenvalues not converged
     ethr =  1.03E-04,  avg # of iterations = 17.2

     negative rho (up, down):  6.055E-07 6.204E-07

     total cpu time spent up to now is    21509.2 secs

     total energy              =   -1542.47857777 Ry
     estimated scf accuracy    <       3.37050224 Ry

     total magnetization       =    -0.00 Bohr mag/cell
     absolute magnetization    =     8.09 Bohr mag/cell

     iteration # 32     ecut=    60.00 Ry     beta= 0.10
     Davidson diagonalization with overlap

---- Real-time Memory Report at c_bands before calling an iterative solver
          2852 MiB given to the printing process from OS
         -1415 MiB allocation reported by mallinfo(arena+hblkhd)
         23350 MiB available memory on the node where the printing process lives
------------------
     ethr =  1.03E-04,  avg # of iterations =  3.1

     negative rho (up, down):  8.715E-07 8.969E-07

     total cpu time spent up to now is    22080.6 secs

     total energy              =   -1542.63742969 Ry
     estimated scf accuracy    <       3.06926429 Ry

     total magnetization       =     0.00 Bohr mag/cell
     absolute magnetization    =     8.03 Bohr mag/cell

     iteration # 33     ecut=    60.00 Ry     beta= 0.10
     Davidson diagonalization with overlap

---- Real-time Memory Report at c_bands before calling an iterative solver
          2852 MiB given to the printing process from OS
         -1415 MiB allocation reported by mallinfo(arena+hblkhd)
         23338 MiB available memory on the node where the printing process lives
------------------
     ethr =  1.03E-04,  avg # of iterations =  9.5

     negative rho (up, down):  8.486E-07 8.736E-07

     total cpu time spent up to now is    22897.1 secs

     total energy              =   -1542.68923311 Ry
     estimated scf accuracy    <       5.79183937 Ry

     total magnetization       =     0.00 Bohr mag/cell
     absolute magnetization    =     7.28 Bohr mag/cell

     iteration # 34     ecut=    60.00 Ry     beta= 0.10
     Davidson diagonalization with overlap

---- Real-time Memory Report at c_bands before calling an iterative solver
          2852 MiB given to the printing process from OS
         -1415 MiB allocation reported by mallinfo(arena+hblkhd)
         23522 MiB available memory on the node where the printing process lives
------------------
     ethr =  1.03E-04,  avg # of iterations =  1.0

     negative rho (up, down):  9.859E-06 1.046E-06

     total cpu time spent up to now is    23404.0 secs

     total energy              =   -1542.76917858 Ry
     estimated scf accuracy    <       5.87518244 Ry

     total magnetization       =     0.00 Bohr mag/cell
     absolute magnetization    =     7.26 Bohr mag/cell

     iteration # 35     ecut=    60.00 Ry     beta= 0.10
     Davidson diagonalization with overlap

---- Real-time Memory Report at c_bands before calling an iterative solver
          2852 MiB given to the printing process from OS
         -1415 MiB allocation reported by mallinfo(arena+hblkhd)
         23536 MiB available memory on the node where the printing process lives
------------------
     ethr =  1.03E-04,  avg # of iterations =  5.4

     negative rho (up, down):  1.171E-06 1.205E-06

     total cpu time spent up to now is    24024.0 secs

     total energy              =   -1542.38315906 Ry
     estimated scf accuracy    <       6.85959549 Ry

     total magnetization       =    -0.00 Bohr mag/cell
     absolute magnetization    =     7.09 Bohr mag/cell

     iteration # 36     ecut=    60.00 Ry     beta= 0.10
     Davidson diagonalization with overlap

---- Real-time Memory Report at c_bands before calling an iterative solver
          2852 MiB given to the printing process from OS
         -1415 MiB allocation reported by mallinfo(arena+hblkhd)
         23515 MiB available memory on the node where the printing process lives
------------------
     ethr =  1.03E-04,  avg # of iterations =  8.0

     negative rho (up, down):  4.122E-07 4.201E-07

     total cpu time spent up to now is    24869.4 secs

     total energy              =   -1542.51619573 Ry
     estimated scf accuracy    <       2.48855900 Ry

     total magnetization       =    -0.00 Bohr mag/cell
     absolute magnetization    =     7.30 Bohr mag/cell

     iteration # 37     ecut=    60.00 Ry     beta= 0.10
     Davidson diagonalization with overlap

---- Real-time Memory Report at c_bands before calling an iterative solver
          2852 MiB given to the printing process from OS
         -1415 MiB allocation reported by mallinfo(arena+hblkhd)
         23627 MiB available memory on the node where the printing process lives
------------------
     ethr =  1.03E-04,  avg # of iterations =  9.2

     negative rho (up, down):  4.482E-07 4.551E-07

     total cpu time spent up to now is    25609.8 secs

     total energy              =   -1542.26010161 Ry
     estimated scf accuracy    <       3.73567018 Ry

     total magnetization       =    -0.00 Bohr mag/cell
     absolute magnetization    =     7.44 Bohr mag/cell

     iteration # 38     ecut=    60.00 Ry     beta= 0.10
     Davidson diagonalization with overlap

---- Real-time Memory Report at c_bands before calling an iterative solver
          2852 MiB given to the printing process from OS
         -1415 MiB allocation reported by mallinfo(arena+hblkhd)
         24980 MiB available memory on the node where the printing process lives
------------------
     ethr =  1.03E-04,  avg # of iterations =  8.1

     negative rho (up, down):  5.819E-07 5.952E-07

     total cpu time spent up to now is    26464.7 secs

     total energy              =   -1542.33110381 Ry
     estimated scf accuracy    <       0.42547233 Ry

     total magnetization       =    -0.00 Bohr mag/cell
     absolute magnetization    =     7.44 Bohr mag/cell

     iteration # 39     ecut=    60.00 Ry     beta= 0.10
     Davidson diagonalization with overlap

---- Real-time Memory Report at c_bands before calling an iterative solver
          2852 MiB given to the printing process from OS
         -1415 MiB allocation reported by mallinfo(arena+hblkhd)
         24953 MiB available memory on the node where the printing process lives
------------------
     ethr =  1.03E-04,  avg # of iterations =  3.9

     negative rho (up, down):  5.362E-07 5.523E-07

     total cpu time spent up to now is    27020.4 secs

     total energy              =   -1542.31503570 Ry
     estimated scf accuracy    <       0.22903318 Ry

     total magnetization       =    -0.00 Bohr mag/cell
     absolute magnetization    =     7.47 Bohr mag/cell

     iteration # 40     ecut=    60.00 Ry     beta= 0.10
     Davidson diagonalization with overlap

---- Real-time Memory Report at c_bands before calling an iterative solver
          2852 MiB given to the printing process from OS
         -1415 MiB allocation reported by mallinfo(arena+hblkhd)
         25001 MiB available memory on the node where the printing process lives
------------------
     c_bands:  1 eigenvalues not converged
     ethr =  1.03E-04,  avg # of iterations = 12.1

     negative rho (up, down):  2.156E-07 2.203E-07

     total cpu time spent up to now is    27865.7 secs

     total energy              =   -1542.31209587 Ry
     estimated scf accuracy    <       0.67719837 Ry

     total magnetization       =     0.00 Bohr mag/cell
     absolute magnetization    =     6.79 Bohr mag/cell

     iteration # 41     ecut=    60.00 Ry     beta= 0.10
     Davidson diagonalization with overlap

---- Real-time Memory Report at c_bands before calling an iterative solver
          2852 MiB given to the printing process from OS
         -1415 MiB allocation reported by mallinfo(arena+hblkhd)
         25001 MiB available memory on the node where the printing process lives
------------------
     ethr =  1.03E-04,  avg # of iterations =  9.0

     negative rho (up, down):  1.701E-07 1.740E-07

     total cpu time spent up to now is    28654.5 secs

     total energy              =   -1542.35482228 Ry
     estimated scf accuracy    <       0.07632687 Ry

     total magnetization       =     0.00 Bohr mag/cell
     absolute magnetization    =     7.17 Bohr mag/cell

     iteration # 42     ecut=    60.00 Ry     beta= 0.10
     Davidson diagonalization with overlap

---- Real-time Memory Report at c_bands before calling an iterative solver
          2852 MiB given to the printing process from OS
         -1415 MiB allocation reported by mallinfo(arena+hblkhd)
         24987 MiB available memory on the node where the printing process lives
------------------
     ethr =  3.98E-05,  avg # of iterations =  1.7

     total cpu time spent up to now is    29182.9 secs

     total energy              =   -1542.35284664 Ry
     estimated scf accuracy    <       0.08063014 Ry

     total magnetization       =     0.00 Bohr mag/cell
     absolute magnetization    =     7.14 Bohr mag/cell

     iteration # 43     ecut=    60.00 Ry     beta= 0.10
     Davidson diagonalization with overlap

---- Real-time Memory Report at c_bands before calling an iterative solver
          2852 MiB given to the printing process from OS
         -1415 MiB allocation reported by mallinfo(arena+hblkhd)
         24985 MiB available memory on the node where the printing process lives
------------------
     ethr =  3.98E-05,  avg # of iterations = 12.3

     total cpu time spent up to now is    29954.0 secs

     total energy              =   -1542.37708311 Ry
     estimated scf accuracy    <       0.30377180 Ry

     total magnetization       =    -0.00 Bohr mag/cell
     absolute magnetization    =     6.68 Bohr mag/cell

     iteration # 44     ecut=    60.00 Ry     beta= 0.10
     Davidson diagonalization with overlap

---- Real-time Memory Report at c_bands before calling an iterative solver
          2852 MiB given to the printing process from OS
         -1415 MiB allocation reported by mallinfo(arena+hblkhd)
         24959 MiB available memory on the node where the printing process lives
------------------
     c_bands:  1 eigenvalues not converged
     ethr =  3.98E-05,  avg # of iterations =  4.6

     total cpu time spent up to now is    30528.9 secs

     total energy              =   -1542.35915045 Ry
     estimated scf accuracy    <       0.43654481 Ry

     total magnetization       =     0.00 Bohr mag/cell
     absolute magnetization    =     6.78 Bohr mag/cell

     iteration # 45     ecut=    60.00 Ry     beta= 0.10
     Davidson diagonalization with overlap

---- Real-time Memory Report at c_bands before calling an iterative solver
          2852 MiB given to the printing process from OS
         -1415 MiB allocation reported by mallinfo(arena+hblkhd)
         25004 MiB available memory on the node where the printing process lives
------------------
     ethr =  3.98E-05,  avg # of iterations =  3.1

     total cpu time spent up to now is    31109.7 secs

     total energy              =   -1542.35754443 Ry
     estimated scf accuracy    <       0.32934332 Ry

     total magnetization       =     0.00 Bohr mag/cell
     absolute magnetization    =     6.64 Bohr mag/cell

     iteration # 46     ecut=    60.00 Ry     beta= 0.10
     Davidson diagonalization with overlap

---- Real-time Memory Report at c_bands before calling an iterative solver
          2852 MiB given to the printing process from OS
         -1415 MiB allocation reported by mallinfo(arena+hblkhd)
         24976 MiB available memory on the node where the printing process lives
------------------
     ethr =  3.98E-05,  avg # of iterations =  1.5

     total cpu time spent up to now is    31638.9 secs

     total energy              =   -1542.34787203 Ry
     estimated scf accuracy    <       0.28306701 Ry

     total magnetization       =     0.00 Bohr mag/cell
     absolute magnetization    =     6.61 Bohr mag/cell

     iteration # 47     ecut=    60.00 Ry     beta= 0.10
     Davidson diagonalization with overlap

---- Real-time Memory Report at c_bands before calling an iterative solver
          2852 MiB given to the printing process from OS
         -1415 MiB allocation reported by mallinfo(arena+hblkhd)
         24979 MiB available memory on the node where the printing process lives
------------------
     ethr =  3.98E-05,  avg # of iterations =  9.9

     total cpu time spent up to now is    32412.9 secs

     total energy              =   -1542.35802495 Ry
     estimated scf accuracy    <       0.14067965 Ry

     total magnetization       =     0.00 Bohr mag/cell
     absolute magnetization    =     6.19 Bohr mag/cell

     iteration # 48     ecut=    60.00 Ry     beta= 0.10
     Davidson diagonalization with overlap

---- Real-time Memory Report at c_bands before calling an iterative solver
          2852 MiB given to the printing process from OS
         -1415 MiB allocation reported by mallinfo(arena+hblkhd)
         24988 MiB available memory on the node where the printing process lives
------------------
     ethr =  3.98E-05,  avg # of iterations =  1.5

     total cpu time spent up to now is    32934.7 secs

     total energy              =   -1542.35863853 Ry
     estimated scf accuracy    <       0.11954885 Ry

     total magnetization       =     0.00 Bohr mag/cell
     absolute magnetization    =     6.18 Bohr mag/cell

     iteration # 49     ecut=    60.00 Ry     beta= 0.10
     Davidson diagonalization with overlap

---- Real-time Memory Report at c_bands before calling an iterative solver
          2852 MiB given to the printing process from OS
         -1415 MiB allocation reported by mallinfo(arena+hblkhd)
         24985 MiB available memory on the node where the printing process lives
------------------
     ethr =  3.98E-05,  avg # of iterations =  1.0

     total cpu time spent up to now is    33446.8 secs

     total energy              =   -1542.35598706 Ry
     estimated scf accuracy    <       0.11657823 Ry

     total magnetization       =     0.00 Bohr mag/cell
     absolute magnetization    =     6.18 Bohr mag/cell

     iteration # 50     ecut=    60.00 Ry     beta= 0.10
     Davidson diagonalization with overlap

---- Real-time Memory Report at c_bands before calling an iterative solver
          2852 MiB given to the printing process from OS
         -1415 MiB allocation reported by mallinfo(arena+hblkhd)
         24951 MiB available memory on the node where the printing process lives
------------------
     ethr =  3.98E-05,  avg # of iterations =  4.2

     total cpu time spent up to now is    33999.3 secs

     total energy              =   -1542.35765571 Ry
     estimated scf accuracy    <       0.09407787 Ry

     total magnetization       =     0.00 Bohr mag/cell
     absolute magnetization    =     6.22 Bohr mag/cell

     iteration # 51     ecut=    60.00 Ry     beta= 0.10
     Davidson diagonalization with overlap

---- Real-time Memory Report at c_bands before calling an iterative solver
          2852 MiB given to the printing process from OS
         -1415 MiB allocation reported by mallinfo(arena+hblkhd)
         25001 MiB available memory on the node where the printing process lives
------------------
     ethr =  3.98E-05,  avg # of iterations =  2.0

     total cpu time spent up to now is    34522.0 secs

     total energy              =   -1542.35715990 Ry
     estimated scf accuracy    <       0.09088280 Ry

     total magnetization       =     0.00 Bohr mag/cell
     absolute magnetization    =     6.21 Bohr mag/cell

     iteration # 52     ecut=    60.00 Ry     beta= 0.10
     Davidson diagonalization with overlap

---- Real-time Memory Report at c_bands before calling an iterative solver
          2852 MiB given to the printing process from OS
         -1415 MiB allocation reported by mallinfo(arena+hblkhd)
         24981 MiB available memory on the node where the printing process lives
------------------
     ethr =  3.98E-05,  avg # of iterations =  8.1

     total cpu time spent up to now is    35242.1 secs

     total energy              =   -1542.36005399 Ry
     estimated scf accuracy    <       0.29807032 Ry

     total magnetization       =     0.00 Bohr mag/cell
     absolute magnetization    =     6.45 Bohr mag/cell

     iteration # 53     ecut=    60.00 Ry     beta= 0.10
     Davidson diagonalization with overlap

---- Real-time Memory Report at c_bands before calling an iterative solver
          2852 MiB given to the printing process from OS
         -1415 MiB allocation reported by mallinfo(arena+hblkhd)
         24980 MiB available memory on the node where the printing process lives
------------------
     ethr =  3.98E-05,  avg # of iterations =  1.9

     total cpu time spent up to now is    35782.8 secs

     total energy              =   -1542.35628241 Ry
     estimated scf accuracy    <       0.23895031 Ry

     total magnetization       =     0.00 Bohr mag/cell
     absolute magnetization    =     6.40 Bohr mag/cell

     iteration # 54     ecut=    60.00 Ry     beta= 0.10
     Davidson diagonalization with overlap

---- Real-time Memory Report at c_bands before calling an iterative solver
          2852 MiB given to the printing process from OS
         -1415 MiB allocation reported by mallinfo(arena+hblkhd)
         24972 MiB available memory on the node where the printing process lives
------------------
     ethr =  3.98E-05,  avg # of iterations =  1.8

     total cpu time spent up to now is    36316.7 secs

     total energy              =   -1542.35100313 Ry
     estimated scf accuracy    <       0.19217547 Ry

     total magnetization       =    -0.00 Bohr mag/cell
     absolute magnetization    =     6.37 Bohr mag/cell

     iteration # 55     ecut=    60.00 Ry     beta= 0.10
     Davidson diagonalization with overlap

---- Real-time Memory Report at c_bands before calling an iterative solver
          2852 MiB given to the printing process from OS
         -1415 MiB allocation reported by mallinfo(arena+hblkhd)
         24959 MiB available memory on the node where the printing process lives
------------------
     ethr =  3.98E-05,  avg # of iterations =  4.9

     negative rho (up, down):  2.535E-05 0.000E+00

     total cpu time spent up to now is    36896.3 secs

     total energy              =   -1542.33405041 Ry
     estimated scf accuracy    <       0.12321220 Ry

     total magnetization       =    -0.00 Bohr mag/cell
     absolute magnetization    =     6.28 Bohr mag/cell

     iteration # 56     ecut=    60.00 Ry     beta= 0.10
     Davidson diagonalization with overlap

---- Real-time Memory Report at c_bands before calling an iterative solver
          2852 MiB given to the printing process from OS
         -1415 MiB allocation reported by mallinfo(arena+hblkhd)
         24950 MiB available memory on the node where the printing process lives
------------------
     c_bands:  2 eigenvalues not converged
     c_bands:  1 eigenvalues not converged
     c_bands:  2 eigenvalues not converged
     c_bands:  1 eigenvalues not converged
     ethr =  3.98E-05,  avg # of iterations = 16.2

     total cpu time spent up to now is    37927.0 secs

     total energy              =   -1542.37554270 Ry
     estimated scf accuracy    <       0.56946980 Ry

     total magnetization       =    -0.00 Bohr mag/cell
     absolute magnetization    =     5.30 Bohr mag/cell

     iteration # 57     ecut=    60.00 Ry     beta= 0.10
     Davidson diagonalization with overlap

---- Real-time Memory Report at c_bands before calling an iterative solver
          2852 MiB given to the printing process from OS
         -1415 MiB allocation reported by mallinfo(arena+hblkhd)
         24988 MiB available memory on the node where the printing process lives
------------------
     ethr =  3.98E-05,  avg # of iterations =  1.2

     total cpu time spent up to now is    38418.1 secs

     total energy              =   -1542.36803054 Ry
     estimated scf accuracy    <       0.53980310 Ry

     total magnetization       =    -0.00 Bohr mag/cell
     absolute magnetization    =     5.32 Bohr mag/cell

     iteration # 58     ecut=    60.00 Ry     beta= 0.10
     Davidson diagonalization with overlap

---- Real-time Memory Report at c_bands before calling an iterative solver
          2852 MiB given to the printing process from OS
         -1415 MiB allocation reported by mallinfo(arena+hblkhd)
         24972 MiB available memory on the node where the printing process lives
------------------
     ethr =  3.98E-05,  avg # of iterations =  1.0

     total cpu time spent up to now is    38888.2 secs

     total energy              =   -1542.35870854 Ry
     estimated scf accuracy    <       0.49289101 Ry

     total magnetization       =    -0.00 Bohr mag/cell
     absolute magnetization    =     5.34 Bohr mag/cell

     iteration # 59     ecut=    60.00 Ry     beta= 0.10
     Davidson diagonalization with overlap

---- Real-time Memory Report at c_bands before calling an iterative solver
          2852 MiB given to the printing process from OS
         -1415 MiB allocation reported by mallinfo(arena+hblkhd)
         24946 MiB available memory on the node where the printing process lives
------------------
     ethr =  3.98E-05,  avg # of iterations =  1.8

     total cpu time spent up to now is    39421.4 secs

     total energy              =   -1542.36614835 Ry
     estimated scf accuracy    <       0.41344697 Ry

     total magnetization       =    -0.00 Bohr mag/cell
     absolute magnetization    =     5.37 Bohr mag/cell

     iteration # 60     ecut=    60.00 Ry     beta= 0.10
     Davidson diagonalization with overlap

---- Real-time Memory Report at c_bands before calling an iterative solver
          2852 MiB given to the printing process from OS
         -1415 MiB allocation reported by mallinfo(arena+hblkhd)
         24985 MiB available memory on the node where the printing process lives
------------------
     ethr =  3.98E-05,  avg # of iterations =  1.0

     total cpu time spent up to now is    39915.6 secs

     total energy              =   -1542.36579265 Ry
     estimated scf accuracy    <       0.41758032 Ry

     total magnetization       =     0.00 Bohr mag/cell
     absolute magnetization    =     5.36 Bohr mag/cell

     iteration # 61     ecut=    60.00 Ry     beta= 0.10
     Davidson diagonalization with overlap

---- Real-time Memory Report at c_bands before calling an iterative solver
          2852 MiB given to the printing process from OS
         -1415 MiB allocation reported by mallinfo(arena+hblkhd)
         24953 MiB available memory on the node where the printing process lives
------------------
     ethr =  3.98E-05,  avg # of iterations =  1.0

     total cpu time spent up to now is    40431.5 secs

     total energy              =   -1542.36515336 Ry
     estimated scf accuracy    <       0.40841807 Ry

     total magnetization       =     0.00 Bohr mag/cell
     absolute magnetization    =     5.37 Bohr mag/cell

     iteration # 62     ecut=    60.00 Ry     beta= 0.10
     Davidson diagonalization with overlap

---- Real-time Memory Report at c_bands before calling an iterative solver
          2852 MiB given to the printing process from OS
         -1415 MiB allocation reported by mallinfo(arena+hblkhd)
         24979 MiB available memory on the node where the printing process lives
------------------
     ethr =  3.98E-05,  avg # of iterations =  1.0

     total cpu time spent up to now is    40943.5 secs

     total energy              =   -1542.36399171 Ry
     estimated scf accuracy    <       0.39661449 Ry

     total magnetization       =    -0.00 Bohr mag/cell
     absolute magnetization    =     5.36 Bohr mag/cell

     iteration # 63     ecut=    60.00 Ry     beta= 0.10
     Davidson diagonalization with overlap

---- Real-time Memory Report at c_bands before calling an iterative solver
          2852 MiB given to the printing process from OS
         -1415 MiB allocation reported by mallinfo(arena+hblkhd)
         24968 MiB available memory on the node where the printing process lives
------------------
     ethr =  3.98E-05,  avg # of iterations =  1.0

     total cpu time spent up to now is    41476.9 secs

     total energy              =   -1542.36979346 Ry
     estimated scf accuracy    <       0.37904323 Ry

     total magnetization       =     0.00 Bohr mag/cell
     absolute magnetization    =     5.38 Bohr mag/cell

     iteration # 64     ecut=    60.00 Ry     beta= 0.10
     Davidson diagonalization with overlap

---- Real-time Memory Report at c_bands before calling an iterative solver
          2852 MiB given to the printing process from OS
         -1415 MiB allocation reported by mallinfo(arena+hblkhd)
         24976 MiB available memory on the node where the printing process lives
------------------
     ethr =  3.98E-05,  avg # of iterations =  1.0

     negative rho (up, down):  1.969E-07 1.987E-07

     total cpu time spent up to now is    41980.9 secs

     total energy              =   -1542.31482117 Ry
     estimated scf accuracy    <       0.39992457 Ry

     total magnetization       =    -0.00 Bohr mag/cell
     absolute magnetization    =     5.39 Bohr mag/cell

     iteration # 65     ecut=    60.00 Ry     beta= 0.10
     Davidson diagonalization with overlap

---- Real-time Memory Report at c_bands before calling an iterative solver
          2852 MiB given to the printing process from OS
         -1415 MiB allocation reported by mallinfo(arena+hblkhd)
         24984 MiB available memory on the node where the printing process lives
------------------
     ethr =  3.98E-05,  avg # of iterations = 15.6

     total cpu time spent up to now is    43037.2 secs

     total energy              =   -1542.37111499 Ry
     estimated scf accuracy    <       0.46619897 Ry

     total magnetization       =     0.00 Bohr mag/cell
     absolute magnetization    =     6.58 Bohr mag/cell

     iteration # 66     ecut=    60.00 Ry     beta= 0.10
     Davidson diagonalization with overlap

---- Real-time Memory Report at c_bands before calling an iterative solver
          2852 MiB given to the printing process from OS
         -1415 MiB allocation reported by mallinfo(arena+hblkhd)
         24952 MiB available memory on the node where the printing process lives
------------------
