
     Program PWSCF v.7.4 starts on 24Nov2025 at 23:58: 4 

     This program is part of the open-source Quantum ESPRESSO suite
     for quantum simulation of materials; please cite
         "P. Giannozzi et al., J. Phys.:Condens. Matter 21 395502 (2009);
         "P. Giannozzi et al., J. Phys.:Condens. Matter 29 465901 (2017);
         "P. Giannozzi et al., J. Chem. Phys. 152 154105 (2020);
          URL http://www.quantum-espresso.org", 
     in publications or presentations arising from this work. More details at
     http://www.quantum-espresso.org/quote

     Parallel version (MPI & OpenMP), running on       8 processor cores
     Number of MPI processes:                 1
     Threads/MPI process:                     8

     MPI processes distributed on     1 nodes
     27826 MiB available memory on the printing compute node when the environment starts

     Waiting for input...
     Reading input from standard input

     Current dimensions of program PWSCF are:
     Max number of different atomic species (ntypx) = 10
     Max number of k-points (npk) =  40000
     Max angular momentum in pseudopotentials (lmaxx) =  4

     Subspace diagonalization in iterative solution of the eigenvalue problem:
     a serial algorithm will be used


     G-vector sticks info
     --------------------
     sticks:   dense  smooth     PW     G-vecs:    dense   smooth      PW
     Sum       16693   16693   4599               482247   482247   69897

     Using Slab Decomposition



     bravais-lattice index     =            0
     lattice parameter (alat)  =      38.6872  a.u.
     unit-cell volume          =    7679.5612 (a.u.)^3
     number of atoms/cell      =           28
     number of atomic types    =            4
     number of electrons       =       192.00
     number of Kohn-Sham states=           96
     kinetic-energy cutoff     =      60.0000  Ry
     charge density cutoff     =     240.0000  Ry
     scf convergence threshold =      1.0E-06
     mixing beta               =       0.4000
     number of iterations used =            8  local-TF  mixing
     Exchange-correlation= PBE
                           (   1   4   3   4   0   0   0)

     celldm(1)=  38.687214  celldm(2)=   0.000000  celldm(3)=   0.000000
     celldm(4)=   0.000000  celldm(5)=   0.000000  celldm(6)=   0.000000

     crystal axes: (cart. coord. in units of alat)
               a(1) = (   1.000000   0.000000   0.000000 )  
               a(2) = (   0.000000   0.583298   0.000000 )  
               a(3) = (   0.000000   0.000000   0.227375 )  

     reciprocal axes: (cart. coord. in units 2 pi/alat)
               b(1) = (  1.000000  0.000000  0.000000 )  
               b(2) = (  0.000000  1.714389  0.000000 )  
               b(3) = (  0.000000  0.000000  4.398014 )  


     PseudoPot. # 1 for Li read from file:
     ./Li.upf
     MD5 check sum: dbcf0ea72988e720c8c712b432d51b0d
     Pseudo is Norm-conserving, Zval =  3.0
     Generated using ONCVPSP code by D. R. Hamann
     Using radial grid of 1944 points,  4 beta functions with: 
                l(1) =   0
                l(2) =   0
                l(3) =   1
                l(4) =   1

     PseudoPot. # 2 for Fe read from file:
     ./Fe.upf
     MD5 check sum: a5f07f5dca5be6cacb81ceb54992e4ae
     Pseudo is Norm-conserving + core correction, Zval = 16.0
     Generated using ONCVPSP code by D. R. Hamann
     Using radial grid of 1426 points,  6 beta functions with: 
                l(1) =   0
                l(2) =   0
                l(3) =   1
                l(4) =   1
                l(5) =   2
                l(6) =   2

     PseudoPot. # 3 for P  read from file:
     ./P.upf
     MD5 check sum: c802fd0635a0ed1615482a1b584dae5b
     Pseudo is Norm-conserving + core correction, Zval =  5.0
     Generated using ONCVPSP code by D. R. Hamann
     Using radial grid of 1298 points,  6 beta functions with: 
                l(1) =   0
                l(2) =   0
                l(3) =   1
                l(4) =   1
                l(5) =   2
                l(6) =   2

     PseudoPot. # 4 for O  read from file:
     ./O.upf
     MD5 check sum: 3e3f909f7470e8921608ab6b1f57bbae
     Pseudo is Norm-conserving + core correction, Zval =  6.0
     Generated using ONCVPSP code by D. R. Hamann
     Using radial grid of  936 points,  5 beta functions with: 
                l(1) =   0
                l(2) =   0
                l(3) =   1
                l(4) =   1
                l(5) =   2

     atomic species   valence    mass     pseudopotential
     Li                3.00     6.94000     Li( 1.00)
     Fe               16.00    55.84500     Fe( 1.00)
     P                 5.00    30.97400     P ( 1.00)
     O                 6.00    15.99900     O ( 1.00)

     No symmetry found


                                    s                        frac. trans.

      isym =  1     identity                                     

 cryst.   s( 1) = (     1          0          0      )
                  (     0          1          0      )
                  (     0          0          1      )

 cart.    s( 1) = (  1.0000000  0.0000000  0.0000000 )
                  (  0.0000000  1.0000000  0.0000000 )
                  (  0.0000000  0.0000000  1.0000000 )


   Cartesian axes

     site n.     atom                  positions (alat units)
         1        Li     tau(   1) = (   0.0000000   0.0000000   0.0000000  )
         2        Li     tau(   2) = (   0.1136877   0.1458247   0.2500001  )
         3        Li     tau(   3) = (   0.1136877   0.0000000   0.2500001  )
         4        Li     tau(   4) = (   0.0000000   0.1458247   0.0000000  )
         5        Fe     tau(   5) = (   0.1204783   0.0729123   0.3905758  )
         6        Fe     tau(   6) = (   0.0067906   0.2187370   0.3594245  )
         7        Fe     tau(   7) = (   0.2205844   0.0729123   0.1405757  )
         8        Fe     tau(   8) = (   0.1068971   0.2187370   0.1094244  )
         9        P      tau(   9) = (   0.0951843   0.0729123   0.0469330  )
        10        P      tau(  10) = (   0.2088720   0.2187370   0.2030666  )
        11        P      tau(  11) = (   0.0185035   0.0729123   0.2969331  )
        12        P      tau(  12) = (   0.1321907   0.2187370   0.4530667  )
        13        O      tau(  13) = (   0.1693461   0.0729123   0.0471152  )
        14        O      tau(  14) = (   0.1622859   0.1591114   0.4170773  )
        15        O      tau(  15) = (   0.1622859   0.2783622   0.4170773  )
        16        O      tau(  16) = (   0.0580294   0.2187370   0.4528845  )
        17        O      tau(  17) = (   0.1614057   0.2187370   0.0221542  )
        18        O      tau(  18) = (   0.0556584   0.2187370   0.2028844  )
        19        O      tau(  19) = (   0.0650896   0.0132872   0.0829229  )
        20        O      tau(  20) = (   0.0485981   0.1325375   0.3329225  )
        21        O      tau(  21) = (   0.1787773   0.1591114   0.1670772  )
        22        O      tau(  22) = (   0.1787773   0.2783622   0.1670772  )
        23        O      tau(  23) = (   0.0659698   0.0729123   0.4778455  )
        24        O      tau(  24) = (   0.0477179   0.0729123   0.2278459  )
        25        O      tau(  25) = (   0.1796576   0.2187370   0.2721543  )
        26        O      tau(  26) = (   0.1717171   0.0729123   0.2971153  )
        27        O      tau(  27) = (   0.0485981   0.0132872   0.3329225  )
        28        O      tau(  28) = (   0.0650896   0.1325375   0.0829229  )

   Crystallographic axes

     site n.     atom                  positions (cryst. coord.)
         1        Li     tau(   1) = (  0.0000000  0.0000000  0.0000000  )
         2        Li     tau(   2) = (  0.1136877  0.2500002  1.0995040  )
         3        Li     tau(   3) = (  0.1136877  0.0000000  1.0995040  )
         4        Li     tau(   4) = (  0.0000000  0.2500002  0.0000000  )
         5        Fe     tau(   5) = (  0.1204783  0.1250001  1.7177577  )
         6        Fe     tau(   6) = (  0.0067906  0.3750003  1.5807542  )
         7        Fe     tau(   7) = (  0.2205844  0.1250001  0.6182537  )
         8        Fe     tau(   8) = (  0.1068971  0.3750003  0.4812502  )
         9        P      tau(   9) = (  0.0951843  0.1250001  0.2064118  )
        10        P      tau(  10) = (  0.2088720  0.3750003  0.8930900  )
        11        P      tau(  11) = (  0.0185035  0.1250001  1.3059158  )
        12        P      tau(  12) = (  0.1321907  0.3750003  1.9925940  )
        13        O      tau(  13) = (  0.1693461  0.1250001  0.2072131  )
        14        O      tau(  14) = (  0.1622859  0.2727787  1.8343119  )
        15        O      tau(  15) = (  0.1622859  0.4772210  1.8343119  )
        16        O      tau(  16) = (  0.0580294  0.3750003  1.9917927  )
        17        O      tau(  17) = (  0.1614057  0.3750003  0.0974346  )
        18        O      tau(  18) = (  0.0556584  0.3750003  0.8922887  )
        19        O      tau(  19) = (  0.0650896  0.0227794  0.3646961  )
        20        O      tau(  20) = (  0.0485981  0.2272208  1.4641979  )
        21        O      tau(  21) = (  0.1787773  0.2727787  0.7348079  )
        22        O      tau(  22) = (  0.1787773  0.4772210  0.7348079  )
        23        O      tau(  23) = (  0.0659698  0.1250001  2.1015712  )
        24        O      tau(  24) = (  0.0477179  0.1250001  1.0020694  )
        25        O      tau(  25) = (  0.1796576  0.3750003  1.1969386  )
        26        O      tau(  26) = (  0.1717171  0.1250001  1.3067171  )
        27        O      tau(  27) = (  0.0485981  0.0227794  1.4641979  )
        28        O      tau(  28) = (  0.0650896  0.2272208  0.3646961  )

     number of k points=     8
                       cart. coord. in units 2pi/alat
        k(    1) = (   0.0000000   0.0000000   0.0000000), wk =   0.2500000
        k(    2) = (   0.0000000   0.0000000  -2.1990071), wk =   0.2500000
        k(    3) = (   0.0000000  -0.8571944   0.0000000), wk =   0.2500000
        k(    4) = (   0.0000000  -0.8571944  -2.1990071), wk =   0.2500000
        k(    5) = (  -0.5000000   0.0000000   0.0000000), wk =   0.2500000
        k(    6) = (  -0.5000000   0.0000000  -2.1990071), wk =   0.2500000
        k(    7) = (  -0.5000000  -0.8571944   0.0000000), wk =   0.2500000
        k(    8) = (  -0.5000000  -0.8571944  -2.1990071), wk =   0.2500000

                       cryst. coord.
        k(    1) = (   0.0000000   0.0000000   0.0000000), wk =   0.2500000
        k(    2) = (   0.0000000   0.0000000  -0.5000000), wk =   0.2500000
        k(    3) = (   0.0000000  -0.5000000   0.0000000), wk =   0.2500000
        k(    4) = (   0.0000000  -0.5000000  -0.5000000), wk =   0.2500000
        k(    5) = (  -0.5000000   0.0000000   0.0000000), wk =   0.2500000
        k(    6) = (  -0.5000000   0.0000000  -0.5000000), wk =   0.2500000
        k(    7) = (  -0.5000000  -0.5000000   0.0000000), wk =   0.2500000
        k(    8) = (  -0.5000000  -0.5000000  -0.5000000), wk =   0.2500000

     Dense  grid:   482247 G-vectors     FFT dimensions: ( 192, 120,  45)

     Dynamical RAM for                 wfc:      88.29 MB

     Dynamical RAM for     wfc (w. buffer):     794.60 MB

     Dynamical RAM for           str. fact:      29.43 MB

     Dynamical RAM for           local pot:       0.00 MB

     Dynamical RAM for          nlocal pot:     353.16 MB

     Dynamical RAM for                qrad:       4.98 MB

     Dynamical RAM for          rho,v,vnew:      45.81 MB

     Dynamical RAM for               rhoin:      15.27 MB

     Dynamical RAM for            rho*nmix:     117.74 MB

     Dynamical RAM for           G-vectors:      31.27 MB

     Dynamical RAM for          h,s,v(r/c):       1.69 MB

     Dynamical RAM for          <psi|beta>:       0.56 MB

     Dynamical RAM for                 psi:     176.58 MB

     Dynamical RAM for                hpsi:     176.58 MB

     Dynamical RAM for      wfcinit/wfcrot:     176.79 MB

     Estimated static dynamical RAM per process >       1.32 GB

     Estimated max dynamical RAM per process >       1.78 GB

     Check: negative core charge=   -0.000013

     Initial potential from superposition of free atoms

     starting charge     191.9796, renormalised to     192.0000

     negative rho (up, down):  1.578E-03 0.000E+00
     Starting wfcs are  128 randomized atomic wfcs

     total cpu time spent up to now is      128.9 secs

     per-process dynamical memory:  1364.9 Mb

     Self-consistent Calculation

     iteration #  1     ecut=    60.00 Ry     beta= 0.40
     Davidson diagonalization with overlap

---- Real-time Memory Report at c_bands before calling an iterative solver
          1489 MiB given to the printing process from OS
          1336 MiB allocation reported by mallinfo(arena+hblkhd)
         26291 MiB available memory on the node where the printing process lives
------------------
     ethr =  1.00E-02,  avg # of iterations =  5.0

     negative rho (up, down):  1.021E-03 0.000E+00

     total cpu time spent up to now is      562.5 secs

     total energy              =   -1542.96222562 Ry
     estimated scf accuracy    <      40.86222254 Ry

     iteration #  2     ecut=    60.00 Ry     beta= 0.40
     Davidson diagonalization with overlap

---- Real-time Memory Report at c_bands before calling an iterative solver
          1720 MiB given to the printing process from OS
          1499 MiB allocation reported by mallinfo(arena+hblkhd)
         26010 MiB available memory on the node where the printing process lives
------------------
     ethr =  1.00E-02,  avg # of iterations =  7.5

     negative rho (up, down):  9.379E-05 0.000E+00

     total cpu time spent up to now is      902.6 secs

     total energy              =   -1543.85367183 Ry
     estimated scf accuracy    <      36.56417708 Ry

     iteration #  3     ecut=    60.00 Ry     beta= 0.40
     Davidson diagonalization with overlap

---- Real-time Memory Report at c_bands before calling an iterative solver
          1870 MiB given to the printing process from OS
          1514 MiB allocation reported by mallinfo(arena+hblkhd)
         26049 MiB available memory on the node where the printing process lives
------------------
     ethr =  1.00E-02,  avg # of iterations =  1.8

     negative rho (up, down):  2.591E-03 0.000E+00

     total cpu time spent up to now is     1148.5 secs

     total energy              =   -1534.81936338 Ry
     estimated scf accuracy    <      24.27394721 Ry

     iteration #  4     ecut=    60.00 Ry     beta= 0.40
     Davidson diagonalization with overlap

---- Real-time Memory Report at c_bands before calling an iterative solver
          1885 MiB given to the printing process from OS
          1529 MiB allocation reported by mallinfo(arena+hblkhd)
         26118 MiB available memory on the node where the printing process lives
------------------
     ethr =  1.00E-02,  avg # of iterations =  8.9

     negative rho (up, down):  1.247E-03 0.000E+00

     total cpu time spent up to now is     1580.6 secs

     total energy              =   -1544.01781284 Ry
     estimated scf accuracy    <      46.39994960 Ry

     iteration #  5     ecut=    60.00 Ry     beta= 0.40
     Davidson diagonalization with overlap

---- Real-time Memory Report at c_bands before calling an iterative solver
          1900 MiB given to the printing process from OS
          1544 MiB allocation reported by mallinfo(arena+hblkhd)
         26308 MiB available memory on the node where the printing process lives
------------------
     ethr =  1.00E-02,  avg # of iterations =  2.0

     negative rho (up, down):  8.342E-04 0.000E+00

     total cpu time spent up to now is     1842.2 secs

     total energy              =   -1543.18451283 Ry
     estimated scf accuracy    <      28.16082014 Ry

     iteration #  6     ecut=    60.00 Ry     beta= 0.40
     Davidson diagonalization with overlap

---- Real-time Memory Report at c_bands before calling an iterative solver
          1914 MiB given to the printing process from OS
          1558 MiB allocation reported by mallinfo(arena+hblkhd)
         26197 MiB available memory on the node where the printing process lives
------------------
     ethr =  1.00E-02,  avg # of iterations =  1.0

     negative rho (up, down):  4.973E-04 0.000E+00

     total cpu time spent up to now is     2087.6 secs

     total energy              =   -1541.34912493 Ry
     estimated scf accuracy    <      21.99011055 Ry

     iteration #  7     ecut=    60.00 Ry     beta= 0.40
     Davidson diagonalization with overlap

---- Real-time Memory Report at c_bands before calling an iterative solver
          1929 MiB given to the printing process from OS
          1573 MiB allocation reported by mallinfo(arena+hblkhd)
         26178 MiB available memory on the node where the printing process lives
------------------
     ethr =  1.00E-02,  avg # of iterations =  2.0

     negative rho (up, down):  2.002E-03 0.000E+00

     total cpu time spent up to now is     2343.0 secs

     total energy              =   -1539.09425936 Ry
     estimated scf accuracy    <      13.29480302 Ry

     iteration #  8     ecut=    60.00 Ry     beta= 0.40
     Davidson diagonalization with overlap

---- Real-time Memory Report at c_bands before calling an iterative solver
          1944 MiB given to the printing process from OS
          1588 MiB allocation reported by mallinfo(arena+hblkhd)
         26060 MiB available memory on the node where the printing process lives
------------------
     ethr =  6.92E-03,  avg # of iterations =  7.2

     negative rho (up, down):  8.284E-05 0.000E+00

     total cpu time spent up to now is     2718.2 secs

     total energy              =   -1543.49939889 Ry
     estimated scf accuracy    <      47.97673292 Ry

     iteration #  9     ecut=    60.00 Ry     beta= 0.40
     Davidson diagonalization with overlap

---- Real-time Memory Report at c_bands before calling an iterative solver
          1959 MiB given to the printing process from OS
          1602 MiB allocation reported by mallinfo(arena+hblkhd)
         26128 MiB available memory on the node where the printing process lives
------------------
     ethr =  6.92E-03,  avg # of iterations =  1.0

     negative rho (up, down):  4.232E-05 0.000E+00

     total cpu time spent up to now is     2956.8 secs

     total energy              =   -1538.89050632 Ry
     estimated scf accuracy    <      43.12295601 Ry

     iteration # 10     ecut=    60.00 Ry     beta= 0.40
     Davidson diagonalization with overlap

---- Real-time Memory Report at c_bands before calling an iterative solver
          1973 MiB given to the printing process from OS
          1617 MiB allocation reported by mallinfo(arena+hblkhd)
         26120 MiB available memory on the node where the printing process lives
------------------
     ethr =  6.92E-03,  avg # of iterations =  7.5

     negative rho (up, down):  4.535E-05 0.000E+00

     total cpu time spent up to now is     3331.4 secs

     total energy              =   -1542.79357564 Ry
     estimated scf accuracy    <      14.17159845 Ry

     iteration # 11     ecut=    60.00 Ry     beta= 0.40
     Davidson diagonalization with overlap

---- Real-time Memory Report at c_bands before calling an iterative solver
          1988 MiB given to the printing process from OS
          1617 MiB allocation reported by mallinfo(arena+hblkhd)
         26212 MiB available memory on the node where the printing process lives
------------------
     ethr =  6.92E-03,  avg # of iterations =  1.0

     negative rho (up, down):  3.582E-05 0.000E+00

     total cpu time spent up to now is     3559.8 secs

     total energy              =   -1543.12877260 Ry
     estimated scf accuracy    <      12.58936380 Ry

     iteration # 12     ecut=    60.00 Ry     beta= 0.40
     Davidson diagonalization with overlap

---- Real-time Memory Report at c_bands before calling an iterative solver
          1988 MiB given to the printing process from OS
          1617 MiB allocation reported by mallinfo(arena+hblkhd)
         25227 MiB available memory on the node where the printing process lives
------------------
     ethr =  6.56E-03,  avg # of iterations =  1.0

     negative rho (up, down):  4.100E-05 0.000E+00

     total cpu time spent up to now is     3788.2 secs

     total energy              =   -1543.50729981 Ry
     estimated scf accuracy    <      13.61722970 Ry

     iteration # 13     ecut=    60.00 Ry     beta= 0.40
     Davidson diagonalization with overlap

---- Real-time Memory Report at c_bands before calling an iterative solver
          1988 MiB given to the printing process from OS
          1617 MiB allocation reported by mallinfo(arena+hblkhd)
         25313 MiB available memory on the node where the printing process lives
------------------
     ethr =  6.56E-03,  avg # of iterations =  1.0

     negative rho (up, down):  4.225E-05 0.000E+00

     total cpu time spent up to now is     4015.4 secs

     total energy              =   -1543.41973696 Ry
     estimated scf accuracy    <      16.18769838 Ry

     iteration # 14     ecut=    60.00 Ry     beta= 0.40
     Davidson diagonalization with overlap

---- Real-time Memory Report at c_bands before calling an iterative solver
          1988 MiB given to the printing process from OS
          1617 MiB allocation reported by mallinfo(arena+hblkhd)
         24068 MiB available memory on the node where the printing process lives
------------------
     ethr =  6.56E-03,  avg # of iterations =  1.0

     negative rho (up, down):  5.128E-05 0.000E+00

     total cpu time spent up to now is     4252.1 secs

     total energy              =   -1543.35198608 Ry
     estimated scf accuracy    <      16.16349108 Ry

     iteration # 15     ecut=    60.00 Ry     beta= 0.40
     Davidson diagonalization with overlap

---- Real-time Memory Report at c_bands before calling an iterative solver
          1988 MiB given to the printing process from OS
          1617 MiB allocation reported by mallinfo(arena+hblkhd)
         23613 MiB available memory on the node where the printing process lives
------------------
     ethr =  6.56E-03,  avg # of iterations =  1.0

     negative rho (up, down):  7.229E-05 0.000E+00

     total cpu time spent up to now is     4485.7 secs

     total energy              =   -1541.97872375 Ry
     estimated scf accuracy    <      16.27585616 Ry

     iteration # 16     ecut=    60.00 Ry     beta= 0.40
     Davidson diagonalization with overlap

---- Real-time Memory Report at c_bands before calling an iterative solver
          1988 MiB given to the printing process from OS
          1617 MiB allocation reported by mallinfo(arena+hblkhd)
         23587 MiB available memory on the node where the printing process lives
------------------
     ethr =  6.56E-03,  avg # of iterations =  1.0

     negative rho (up, down):  6.143E-05 0.000E+00

     total cpu time spent up to now is     4727.3 secs

     total energy              =   -1539.98977942 Ry
     estimated scf accuracy    <       8.79818229 Ry

     iteration # 17     ecut=    60.00 Ry     beta= 0.40
     Davidson diagonalization with overlap

---- Real-time Memory Report at c_bands before calling an iterative solver
          1988 MiB given to the printing process from OS
          1617 MiB allocation reported by mallinfo(arena+hblkhd)
         23455 MiB available memory on the node where the printing process lives
------------------
     ethr =  4.58E-03,  avg # of iterations =  6.4

     negative rho (up, down):  3.965E-05 0.000E+00

     total cpu time spent up to now is     5110.1 secs

     total energy              =   -1543.61231554 Ry
     estimated scf accuracy    <      21.69112727 Ry

     iteration # 18     ecut=    60.00 Ry     beta= 0.40
     Davidson diagonalization with overlap

---- Real-time Memory Report at c_bands before calling an iterative solver
          1988 MiB given to the printing process from OS
          1617 MiB allocation reported by mallinfo(arena+hblkhd)
         23809 MiB available memory on the node where the printing process lives
------------------
     ethr =  4.58E-03,  avg # of iterations =  2.8

     negative rho (up, down):  3.475E-05 0.000E+00

     total cpu time spent up to now is     5364.0 secs

     total energy              =   -1544.52864912 Ry
     estimated scf accuracy    <      20.01484749 Ry

     iteration # 19     ecut=    60.00 Ry     beta= 0.40
     Davidson diagonalization with overlap

---- Real-time Memory Report at c_bands before calling an iterative solver
          1988 MiB given to the printing process from OS
          1617 MiB allocation reported by mallinfo(arena+hblkhd)
         23364 MiB available memory on the node where the printing process lives
------------------
     ethr =  4.58E-03,  avg # of iterations =  8.8

     negative rho (up, down):  2.583E-05 0.000E+00

     total cpu time spent up to now is     5672.6 secs

     total energy              =   -1543.46647286 Ry
     estimated scf accuracy    <      50.33755115 Ry

     iteration # 20     ecut=    60.00 Ry     beta= 0.40
     Davidson diagonalization with overlap

---- Real-time Memory Report at c_bands before calling an iterative solver
          1988 MiB given to the printing process from OS
          1617 MiB allocation reported by mallinfo(arena+hblkhd)
         23529 MiB available memory on the node where the printing process lives
------------------
     ethr =  4.58E-03,  avg # of iterations =  1.9

     negative rho (up, down):  2.906E-05 0.000E+00

     total cpu time spent up to now is     5913.6 secs

     total energy              =   -1542.54035476 Ry
     estimated scf accuracy    <      42.55934260 Ry

     iteration # 21     ecut=    60.00 Ry     beta= 0.40
     Davidson diagonalization with overlap

---- Real-time Memory Report at c_bands before calling an iterative solver
          1988 MiB given to the printing process from OS
          1617 MiB allocation reported by mallinfo(arena+hblkhd)
         23306 MiB available memory on the node where the printing process lives
------------------
     ethr =  4.58E-03,  avg # of iterations =  1.9

     negative rho (up, down):  2.109E-05 0.000E+00

     total cpu time spent up to now is     6160.9 secs

     total energy              =   -1542.73825582 Ry
     estimated scf accuracy    <      37.75463129 Ry

     iteration # 22     ecut=    60.00 Ry     beta= 0.40
     Davidson diagonalization with overlap

---- Real-time Memory Report at c_bands before calling an iterative solver
          1988 MiB given to the printing process from OS
          1617 MiB allocation reported by mallinfo(arena+hblkhd)
         23278 MiB available memory on the node where the printing process lives
------------------
     ethr =  4.58E-03,  avg # of iterations =  1.0

     negative rho (up, down):  1.982E-05 0.000E+00

     total cpu time spent up to now is     6410.3 secs

     total energy              =   -1541.36731550 Ry
     estimated scf accuracy    <      36.94554772 Ry

     iteration # 23     ecut=    60.00 Ry     beta= 0.40
     Davidson diagonalization with overlap

---- Real-time Memory Report at c_bands before calling an iterative solver
          1988 MiB given to the printing process from OS
          1617 MiB allocation reported by mallinfo(arena+hblkhd)
         23354 MiB available memory on the node where the printing process lives
------------------
     ethr =  4.58E-03,  avg # of iterations = 12.1

     negative rho (up, down):  1.487E-05 0.000E+00

     total cpu time spent up to now is     6772.7 secs

     total energy              =   -1543.08305621 Ry
     estimated scf accuracy    <      12.44418164 Ry

     iteration # 24     ecut=    60.00 Ry     beta= 0.40
     Davidson diagonalization with overlap

---- Real-time Memory Report at c_bands before calling an iterative solver
          1988 MiB given to the printing process from OS
          1617 MiB allocation reported by mallinfo(arena+hblkhd)
         23475 MiB available memory on the node where the printing process lives
------------------
     ethr =  4.58E-03,  avg # of iterations =  1.0

     negative rho (up, down):  2.786E-06 0.000E+00

     total cpu time spent up to now is     7011.8 secs

     total energy              =   -1542.30669038 Ry
     estimated scf accuracy    <      11.50886791 Ry

     iteration # 25     ecut=    60.00 Ry     beta= 0.40
     Davidson diagonalization with overlap

---- Real-time Memory Report at c_bands before calling an iterative solver
          1988 MiB given to the printing process from OS
          1617 MiB allocation reported by mallinfo(arena+hblkhd)
         23465 MiB available memory on the node where the printing process lives
------------------
     ethr =  4.58E-03,  avg # of iterations =  1.0

     total cpu time spent up to now is     7243.5 secs

     total energy              =   -1542.30137363 Ry
     estimated scf accuracy    <       6.74050915 Ry

     iteration # 26     ecut=    60.00 Ry     beta= 0.40
     Davidson diagonalization with overlap

---- Real-time Memory Report at c_bands before calling an iterative solver
          1988 MiB given to the printing process from OS
          1617 MiB allocation reported by mallinfo(arena+hblkhd)
         23469 MiB available memory on the node where the printing process lives
------------------
     ethr =  3.51E-03,  avg # of iterations =  9.4

     total cpu time spent up to now is     7564.6 secs

     total energy              =   -1541.17914739 Ry
     estimated scf accuracy    <      23.77427968 Ry

     iteration # 27     ecut=    60.00 Ry     beta= 0.40
     Davidson diagonalization with overlap

---- Real-time Memory Report at c_bands before calling an iterative solver
          1988 MiB given to the printing process from OS
          1617 MiB allocation reported by mallinfo(arena+hblkhd)
         23313 MiB available memory on the node where the printing process lives
------------------
     ethr =  3.51E-03,  avg # of iterations =  6.2

     total cpu time spent up to now is     7848.7 secs

     total energy              =   -1541.33802912 Ry
     estimated scf accuracy    <       7.29463975 Ry

     iteration # 28     ecut=    60.00 Ry     beta= 0.40
     Davidson diagonalization with overlap

---- Real-time Memory Report at c_bands before calling an iterative solver
          1988 MiB given to the printing process from OS
          1617 MiB allocation reported by mallinfo(arena+hblkhd)
         23263 MiB available memory on the node where the printing process lives
------------------
     ethr =  3.51E-03,  avg # of iterations =  9.9

     total cpu time spent up to now is     8225.7 secs

     total energy              =   -1542.30881738 Ry
     estimated scf accuracy    <      28.21507863 Ry

     iteration # 29     ecut=    60.00 Ry     beta= 0.40
     Davidson diagonalization with overlap

---- Real-time Memory Report at c_bands before calling an iterative solver
          1988 MiB given to the printing process from OS
          1617 MiB allocation reported by mallinfo(arena+hblkhd)
         23196 MiB available memory on the node where the printing process lives
------------------
     ethr =  3.51E-03,  avg # of iterations =  1.5

     total cpu time spent up to now is     8468.7 secs

     total energy              =   -1541.68412161 Ry
     estimated scf accuracy    <      23.44457729 Ry

     iteration # 30     ecut=    60.00 Ry     beta= 0.40
     Davidson diagonalization with overlap

---- Real-time Memory Report at c_bands before calling an iterative solver
          1988 MiB given to the printing process from OS
          1617 MiB allocation reported by mallinfo(arena+hblkhd)
         23293 MiB available memory on the node where the printing process lives
------------------
     ethr =  3.51E-03,  avg # of iterations =  1.0

     total cpu time spent up to now is     8719.8 secs

     total energy              =   -1542.49347139 Ry
     estimated scf accuracy    <      19.08803962 Ry

     iteration # 31     ecut=    60.00 Ry     beta= 0.40
     Davidson diagonalization with overlap

---- Real-time Memory Report at c_bands before calling an iterative solver
          1988 MiB given to the printing process from OS
          1617 MiB allocation reported by mallinfo(arena+hblkhd)
         23325 MiB available memory on the node where the printing process lives
------------------
     ethr =  3.51E-03,  avg # of iterations =  1.0

     total cpu time spent up to now is     8953.5 secs

     total energy              =   -1542.91911860 Ry
     estimated scf accuracy    <      20.90421475 Ry

     iteration # 32     ecut=    60.00 Ry     beta= 0.40
     Davidson diagonalization with overlap

---- Real-time Memory Report at c_bands before calling an iterative solver
          1988 MiB given to the printing process from OS
          1617 MiB allocation reported by mallinfo(arena+hblkhd)
         23370 MiB available memory on the node where the printing process lives
------------------
     ethr =  3.51E-03,  avg # of iterations =  1.0

     total cpu time spent up to now is     9196.2 secs

     total energy              =   -1541.94753498 Ry
     estimated scf accuracy    <      22.43586240 Ry

     iteration # 33     ecut=    60.00 Ry     beta= 0.40
     Davidson diagonalization with overlap

---- Real-time Memory Report at c_bands before calling an iterative solver
          1988 MiB given to the printing process from OS
          1617 MiB allocation reported by mallinfo(arena+hblkhd)
         23312 MiB available memory on the node where the printing process lives
------------------
     ethr =  3.51E-03,  avg # of iterations =  1.5

     total cpu time spent up to now is     9442.6 secs

     total energy              =   -1541.38311596 Ry
     estimated scf accuracy    <      17.72833111 Ry

     iteration # 34     ecut=    60.00 Ry     beta= 0.40
     Davidson diagonalization with overlap

---- Real-time Memory Report at c_bands before calling an iterative solver
          1988 MiB given to the printing process from OS
          1617 MiB allocation reported by mallinfo(arena+hblkhd)
         23529 MiB available memory on the node where the printing process lives
------------------
     ethr =  3.51E-03,  avg # of iterations =  9.1

     total cpu time spent up to now is     9780.4 secs

     total energy              =   -1542.61122143 Ry
     estimated scf accuracy    <       4.80413816 Ry

     iteration # 35     ecut=    60.00 Ry     beta= 0.40
     Davidson diagonalization with overlap

---- Real-time Memory Report at c_bands before calling an iterative solver
          1988 MiB given to the printing process from OS
          1617 MiB allocation reported by mallinfo(arena+hblkhd)
         23151 MiB available memory on the node where the printing process lives
------------------
     ethr =  2.50E-03,  avg # of iterations =  2.9

     total cpu time spent up to now is    10047.2 secs

     total energy              =   -1542.86952105 Ry
     estimated scf accuracy    <       6.36053052 Ry

     iteration # 36     ecut=    60.00 Ry     beta= 0.40
     Davidson diagonalization with overlap

---- Real-time Memory Report at c_bands before calling an iterative solver
          1988 MiB given to the printing process from OS
          1617 MiB allocation reported by mallinfo(arena+hblkhd)
         23299 MiB available memory on the node where the printing process lives
------------------
     ethr =  2.50E-03,  avg # of iterations =  1.0

     total cpu time spent up to now is    10288.4 secs

     total energy              =   -1541.68194207 Ry
     estimated scf accuracy    <       6.86496897 Ry

     iteration # 37     ecut=    60.00 Ry     beta= 0.40
     Davidson diagonalization with overlap

---- Real-time Memory Report at c_bands before calling an iterative solver
          1988 MiB given to the printing process from OS
          1617 MiB allocation reported by mallinfo(arena+hblkhd)
         23227 MiB available memory on the node where the printing process lives
------------------
     ethr =  2.50E-03,  avg # of iterations =  7.8

     total cpu time spent up to now is    10669.5 secs

     total energy              =   -1541.53982115 Ry
     estimated scf accuracy    <      47.38978786 Ry

     iteration # 38     ecut=    60.00 Ry     beta= 0.40
     Davidson diagonalization with overlap

---- Real-time Memory Report at c_bands before calling an iterative solver
          1988 MiB given to the printing process from OS
          1617 MiB allocation reported by mallinfo(arena+hblkhd)
         23158 MiB available memory on the node where the printing process lives
------------------
     ethr =  2.50E-03,  avg # of iterations = 12.0

     total cpu time spent up to now is    11005.0 secs

     total energy              =   -1541.86399636 Ry
     estimated scf accuracy    <      13.76576378 Ry

     iteration # 39     ecut=    60.00 Ry     beta= 0.40
     Davidson diagonalization with overlap

---- Real-time Memory Report at c_bands before calling an iterative solver
          1988 MiB given to the printing process from OS
          1617 MiB allocation reported by mallinfo(arena+hblkhd)
         23258 MiB available memory on the node where the printing process lives
------------------
     ethr =  2.50E-03,  avg # of iterations =  2.0

     total cpu time spent up to now is    11242.2 secs

     total energy              =   -1540.91199177 Ry
     estimated scf accuracy    <      10.53921272 Ry

     iteration # 40     ecut=    60.00 Ry     beta= 0.40
     Davidson diagonalization with overlap

---- Real-time Memory Report at c_bands before calling an iterative solver
          1988 MiB given to the printing process from OS
          1617 MiB allocation reported by mallinfo(arena+hblkhd)
         23197 MiB available memory on the node where the printing process lives
------------------
     ethr =  2.50E-03,  avg # of iterations =  6.6

     total cpu time spent up to now is    11619.4 secs

     total energy              =   -1542.87184509 Ry
     estimated scf accuracy    <      11.04361622 Ry

     iteration # 41     ecut=    60.00 Ry     beta= 0.40
     Davidson diagonalization with overlap

---- Real-time Memory Report at c_bands before calling an iterative solver
          1988 MiB given to the printing process from OS
          1617 MiB allocation reported by mallinfo(arena+hblkhd)
         23964 MiB available memory on the node where the printing process lives
------------------
     ethr =  2.50E-03,  avg # of iterations =  1.0

     total cpu time spent up to now is    11860.1 secs

     total energy              =   -1542.91757371 Ry
     estimated scf accuracy    <      11.00070634 Ry

     iteration # 42     ecut=    60.00 Ry     beta= 0.40
     Davidson diagonalization with overlap

---- Real-time Memory Report at c_bands before calling an iterative solver
          1988 MiB given to the printing process from OS
          1617 MiB allocation reported by mallinfo(arena+hblkhd)
         23948 MiB available memory on the node where the printing process lives
------------------
     ethr =  2.50E-03,  avg # of iterations =  1.0

     total cpu time spent up to now is    12097.0 secs

     total energy              =   -1543.10030142 Ry
     estimated scf accuracy    <      11.16187217 Ry

     iteration # 43     ecut=    60.00 Ry     beta= 0.40
     Davidson diagonalization with overlap

---- Real-time Memory Report at c_bands before calling an iterative solver
          1988 MiB given to the printing process from OS
          1617 MiB allocation reported by mallinfo(arena+hblkhd)
         24061 MiB available memory on the node where the printing process lives
------------------
     ethr =  2.50E-03,  avg # of iterations =  2.1

     total cpu time spent up to now is    12339.7 secs

     total energy              =   -1543.02172644 Ry
     estimated scf accuracy    <      12.83149906 Ry

     iteration # 44     ecut=    60.00 Ry     beta= 0.40
     Davidson diagonalization with overlap

---- Real-time Memory Report at c_bands before calling an iterative solver
          1988 MiB given to the printing process from OS
          1617 MiB allocation reported by mallinfo(arena+hblkhd)
         23995 MiB available memory on the node where the printing process lives
------------------
     ethr =  2.50E-03,  avg # of iterations =  1.0

     total cpu time spent up to now is    12568.2 secs

     total energy              =   -1542.70887522 Ry
     estimated scf accuracy    <      12.59756553 Ry

     iteration # 45     ecut=    60.00 Ry     beta= 0.40
     Davidson diagonalization with overlap

---- Real-time Memory Report at c_bands before calling an iterative solver
          1988 MiB given to the printing process from OS
          1617 MiB allocation reported by mallinfo(arena+hblkhd)
         23949 MiB available memory on the node where the printing process lives
------------------
     ethr =  2.50E-03,  avg # of iterations =  1.0

     total cpu time spent up to now is    12804.7 secs

     total energy              =   -1542.54599341 Ry
     estimated scf accuracy    <      10.81145500 Ry

     iteration # 46     ecut=    60.00 Ry     beta= 0.40
     Davidson diagonalization with overlap

---- Real-time Memory Report at c_bands before calling an iterative solver
          1988 MiB given to the printing process from OS
          1617 MiB allocation reported by mallinfo(arena+hblkhd)
         23853 MiB available memory on the node where the printing process lives
------------------
     ethr =  2.50E-03,  avg # of iterations =  1.0

     total cpu time spent up to now is    13032.2 secs

     total energy              =   -1542.57284935 Ry
     estimated scf accuracy    <       9.14768050 Ry

     iteration # 47     ecut=    60.00 Ry     beta= 0.40
     Davidson diagonalization with overlap

---- Real-time Memory Report at c_bands before calling an iterative solver
          1988 MiB given to the printing process from OS
          1617 MiB allocation reported by mallinfo(arena+hblkhd)
         23856 MiB available memory on the node where the printing process lives
------------------
     ethr =  2.50E-03,  avg # of iterations =  1.0

     total cpu time spent up to now is    13278.5 secs

     total energy              =   -1542.28878790 Ry
     estimated scf accuracy    <       8.80314348 Ry

     iteration # 48     ecut=    60.00 Ry     beta= 0.40
     Davidson diagonalization with overlap

---- Real-time Memory Report at c_bands before calling an iterative solver
          1988 MiB given to the printing process from OS
          1617 MiB allocation reported by mallinfo(arena+hblkhd)
         23927 MiB available memory on the node where the printing process lives
------------------
     ethr =  2.50E-03,  avg # of iterations =  1.0

     negative rho (up, down):  3.129E-02 0.000E+00

     total cpu time spent up to now is    13528.7 secs

     total energy              =   -1540.35732615 Ry
     estimated scf accuracy    <       6.27964290 Ry

     iteration # 49     ecut=    60.00 Ry     beta= 0.40
     Davidson diagonalization with overlap

---- Real-time Memory Report at c_bands before calling an iterative solver
          1988 MiB given to the printing process from OS
          1617 MiB allocation reported by mallinfo(arena+hblkhd)
         23857 MiB available memory on the node where the printing process lives
------------------
     ethr =  2.50E-03,  avg # of iterations =  7.4

     negative rho (up, down):  1.417E-03 0.000E+00

     total cpu time spent up to now is    13935.6 secs

     total energy              =   -1541.27394667 Ry
     estimated scf accuracy    <      49.15880764 Ry

     iteration # 50     ecut=    60.00 Ry     beta= 0.40
     Davidson diagonalization with overlap

---- Real-time Memory Report at c_bands before calling an iterative solver
          1988 MiB given to the printing process from OS
          1617 MiB allocation reported by mallinfo(arena+hblkhd)
         23882 MiB available memory on the node where the printing process lives
------------------
     ethr =  2.50E-03,  avg # of iterations =  8.2

     total cpu time spent up to now is    14303.7 secs

     total energy              =   -1542.42313049 Ry
     estimated scf accuracy    <       8.66843712 Ry

     iteration # 51     ecut=    60.00 Ry     beta= 0.40
     Davidson diagonalization with overlap

---- Real-time Memory Report at c_bands before calling an iterative solver
          1988 MiB given to the printing process from OS
          1617 MiB allocation reported by mallinfo(arena+hblkhd)
         23856 MiB available memory on the node where the printing process lives
------------------
     ethr =  2.50E-03,  avg # of iterations =  1.0

     negative rho (up, down):  5.825E-07 0.000E+00

     total cpu time spent up to now is    14542.9 secs

     total energy              =   -1542.68295655 Ry
     estimated scf accuracy    <       6.61746539 Ry

     iteration # 52     ecut=    60.00 Ry     beta= 0.40
     Davidson diagonalization with overlap

---- Real-time Memory Report at c_bands before calling an iterative solver
          1988 MiB given to the printing process from OS
          1617 MiB allocation reported by mallinfo(arena+hblkhd)
         23904 MiB available memory on the node where the printing process lives
------------------
     ethr =  2.50E-03,  avg # of iterations =  1.0

     negative rho (up, down):  1.769E-03 0.000E+00

     total cpu time spent up to now is    14780.6 secs

     total energy              =   -1543.22660184 Ry
     estimated scf accuracy    <       7.30061876 Ry

     iteration # 53     ecut=    60.00 Ry     beta= 0.40
     Davidson diagonalization with overlap

---- Real-time Memory Report at c_bands before calling an iterative solver
          1988 MiB given to the printing process from OS
          1617 MiB allocation reported by mallinfo(arena+hblkhd)
         23893 MiB available memory on the node where the printing process lives
------------------
     ethr =  2.50E-03,  avg # of iterations =  2.6

     total cpu time spent up to now is    15036.5 secs

     total energy              =   -1542.23183747 Ry
     estimated scf accuracy    <      11.71534397 Ry

     iteration # 54     ecut=    60.00 Ry     beta= 0.40
     Davidson diagonalization with overlap

---- Real-time Memory Report at c_bands before calling an iterative solver
          1988 MiB given to the printing process from OS
          1617 MiB allocation reported by mallinfo(arena+hblkhd)
         23894 MiB available memory on the node where the printing process lives
------------------
     ethr =  2.50E-03,  avg # of iterations =  2.2

     total cpu time spent up to now is    15294.6 secs

     total energy              =   -1542.19584115 Ry
     estimated scf accuracy    <       7.03585515 Ry

     iteration # 55     ecut=    60.00 Ry     beta= 0.40
     Davidson diagonalization with overlap

---- Real-time Memory Report at c_bands before calling an iterative solver
          1988 MiB given to the printing process from OS
          1617 MiB allocation reported by mallinfo(arena+hblkhd)
         23871 MiB available memory on the node where the printing process lives
------------------
     ethr =  2.50E-03,  avg # of iterations =  1.1

     total cpu time spent up to now is    15532.6 secs

     total energy              =   -1542.45245334 Ry
     estimated scf accuracy    <       5.74153646 Ry

     iteration # 56     ecut=    60.00 Ry     beta= 0.40
     Davidson diagonalization with overlap

---- Real-time Memory Report at c_bands before calling an iterative solver
          1988 MiB given to the printing process from OS
          1617 MiB allocation reported by mallinfo(arena+hblkhd)
         23947 MiB available memory on the node where the printing process lives
------------------
     ethr =  2.50E-03,  avg # of iterations =  1.0

     total cpu time spent up to now is    15769.0 secs

     total energy              =   -1542.41445079 Ry
     estimated scf accuracy    <       6.05640549 Ry

     iteration # 57     ecut=    60.00 Ry     beta= 0.40
     Davidson diagonalization with overlap

---- Real-time Memory Report at c_bands before calling an iterative solver
          1988 MiB given to the printing process from OS
          1617 MiB allocation reported by mallinfo(arena+hblkhd)
         24086 MiB available memory on the node where the printing process lives
------------------
     ethr =  2.50E-03,  avg # of iterations =  1.0

     negative rho (up, down):  1.559E-03 0.000E+00

     total cpu time spent up to now is    16005.0 secs

     total energy              =   -1540.60946840 Ry
     estimated scf accuracy    <       5.68582371 Ry

     iteration # 58     ecut=    60.00 Ry     beta= 0.40
     Davidson diagonalization with overlap

---- Real-time Memory Report at c_bands before calling an iterative solver
          1988 MiB given to the printing process from OS
          1617 MiB allocation reported by mallinfo(arena+hblkhd)
         23940 MiB available memory on the node where the printing process lives
------------------
     ethr =  2.50E-03,  avg # of iterations =  8.4

     total cpu time spent up to now is    16372.6 secs

     total energy              =   -1541.38039746 Ry
     estimated scf accuracy    <      65.43938679 Ry

     iteration # 59     ecut=    60.00 Ry     beta= 0.40
     Davidson diagonalization with overlap

---- Real-time Memory Report at c_bands before calling an iterative solver
          1988 MiB given to the printing process from OS
          1617 MiB allocation reported by mallinfo(arena+hblkhd)
         23948 MiB available memory on the node where the printing process lives
------------------
     ethr =  2.50E-03,  avg # of iterations =  9.4

     total cpu time spent up to now is    16700.7 secs

     total energy              =   -1541.60528916 Ry
     estimated scf accuracy    <      20.56458987 Ry

     iteration # 60     ecut=    60.00 Ry     beta= 0.40
     Davidson diagonalization with overlap

---- Real-time Memory Report at c_bands before calling an iterative solver
          1988 MiB given to the printing process from OS
          1617 MiB allocation reported by mallinfo(arena+hblkhd)
         23961 MiB available memory on the node where the printing process lives
------------------
     ethr =  2.50E-03,  avg # of iterations =  2.0

     total cpu time spent up to now is    16949.0 secs

     total energy              =   -1541.85665370 Ry
     estimated scf accuracy    <      16.28771443 Ry

     iteration # 61     ecut=    60.00 Ry     beta= 0.40
     Davidson diagonalization with overlap

---- Real-time Memory Report at c_bands before calling an iterative solver
          1988 MiB given to the printing process from OS
          1617 MiB allocation reported by mallinfo(arena+hblkhd)
         24045 MiB available memory on the node where the printing process lives
------------------
     ethr =  2.50E-03,  avg # of iterations =  1.0

     total cpu time spent up to now is    17191.2 secs

     total energy              =   -1541.86925512 Ry
     estimated scf accuracy    <      16.13391074 Ry

     iteration # 62     ecut=    60.00 Ry     beta= 0.40
     Davidson diagonalization with overlap

---- Real-time Memory Report at c_bands before calling an iterative solver
          1988 MiB given to the printing process from OS
          1617 MiB allocation reported by mallinfo(arena+hblkhd)
         23924 MiB available memory on the node where the printing process lives
------------------
     ethr =  2.50E-03,  avg # of iterations =  1.0

     total cpu time spent up to now is    17425.3 secs

     total energy              =   -1541.91829911 Ry
     estimated scf accuracy    <      15.34029458 Ry

     iteration # 63     ecut=    60.00 Ry     beta= 0.40
     Davidson diagonalization with overlap

---- Real-time Memory Report at c_bands before calling an iterative solver
          1988 MiB given to the printing process from OS
          1617 MiB allocation reported by mallinfo(arena+hblkhd)
         24082 MiB available memory on the node where the printing process lives
------------------
     ethr =  2.50E-03,  avg # of iterations =  1.0

     negative rho (up, down):  1.194E-04 0.000E+00

     total cpu time spent up to now is    17666.3 secs

     total energy              =   -1541.31107239 Ry
     estimated scf accuracy    <      14.59861345 Ry

     iteration # 64     ecut=    60.00 Ry     beta= 0.40
     Davidson diagonalization with overlap

---- Real-time Memory Report at c_bands before calling an iterative solver
          1988 MiB given to the printing process from OS
          1617 MiB allocation reported by mallinfo(arena+hblkhd)
         24011 MiB available memory on the node where the printing process lives
------------------
     ethr =  2.50E-03,  avg # of iterations =  6.8

     total cpu time spent up to now is    17984.9 secs

     total energy              =   -1541.99924926 Ry
     estimated scf accuracy    <       1.22474224 Ry

     iteration # 65     ecut=    60.00 Ry     beta= 0.40
     Davidson diagonalization with overlap

---- Real-time Memory Report at c_bands before calling an iterative solver
          1988 MiB given to the printing process from OS
          1617 MiB allocation reported by mallinfo(arena+hblkhd)
         23963 MiB available memory on the node where the printing process lives
------------------
     ethr =  6.38E-04,  avg # of iterations =  5.5

     total cpu time spent up to now is    18308.6 secs

     total energy              =   -1542.68477204 Ry
     estimated scf accuracy    <       7.33712502 Ry

     iteration # 66     ecut=    60.00 Ry     beta= 0.40
     Davidson diagonalization with overlap

---- Real-time Memory Report at c_bands before calling an iterative solver
          1988 MiB given to the printing process from OS
          1617 MiB allocation reported by mallinfo(arena+hblkhd)
         23979 MiB available memory on the node where the printing process lives
------------------
     ethr =  6.38E-04,  avg # of iterations =  5.5

     total cpu time spent up to now is    18578.5 secs

     total energy              =   -1542.68701849 Ry
     estimated scf accuracy    <       7.75633344 Ry

     iteration # 67     ecut=    60.00 Ry     beta= 0.40
     Davidson diagonalization with overlap

---- Real-time Memory Report at c_bands before calling an iterative solver
          1988 MiB given to the printing process from OS
          1617 MiB allocation reported by mallinfo(arena+hblkhd)
         23882 MiB available memory on the node where the printing process lives
------------------
     ethr =  6.38E-04,  avg # of iterations =  1.0

     total cpu time spent up to now is    18818.3 secs

     total energy              =   -1542.33954822 Ry
     estimated scf accuracy    <       7.43969045 Ry

     iteration # 68     ecut=    60.00 Ry     beta= 0.40
     Davidson diagonalization with overlap

---- Real-time Memory Report at c_bands before calling an iterative solver
          1988 MiB given to the printing process from OS
          1617 MiB allocation reported by mallinfo(arena+hblkhd)
         23859 MiB available memory on the node where the printing process lives
------------------
     ethr =  6.38E-04,  avg # of iterations =  9.8

     total cpu time spent up to now is    19117.0 secs

     total energy              =   -1542.39037884 Ry
     estimated scf accuracy    <       3.72666992 Ry

     iteration # 69     ecut=    60.00 Ry     beta= 0.40
     Davidson diagonalization with overlap

---- Real-time Memory Report at c_bands before calling an iterative solver
          1988 MiB given to the printing process from OS
          1617 MiB allocation reported by mallinfo(arena+hblkhd)
         23863 MiB available memory on the node where the printing process lives
------------------
     ethr =  6.38E-04,  avg # of iterations =  1.0

     total cpu time spent up to now is    19360.5 secs

     total energy              =   -1542.37753847 Ry
     estimated scf accuracy    <       3.18155782 Ry

     iteration # 70     ecut=    60.00 Ry     beta= 0.40
     Davidson diagonalization with overlap

---- Real-time Memory Report at c_bands before calling an iterative solver
          1988 MiB given to the printing process from OS
          1617 MiB allocation reported by mallinfo(arena+hblkhd)
         24072 MiB available memory on the node where the printing process lives
------------------
     ethr =  6.38E-04,  avg # of iterations =  1.0

     total cpu time spent up to now is    19600.2 secs

     total energy              =   -1542.41383642 Ry
     estimated scf accuracy    <       2.98063964 Ry

     iteration # 71     ecut=    60.00 Ry     beta= 0.40
     Davidson diagonalization with overlap

---- Real-time Memory Report at c_bands before calling an iterative solver
          1988 MiB given to the printing process from OS
          1617 MiB allocation reported by mallinfo(arena+hblkhd)
         23887 MiB available memory on the node where the printing process lives
------------------
     ethr =  6.38E-04,  avg # of iterations =  1.0

     total cpu time spent up to now is    19834.7 secs

     total energy              =   -1542.37788861 Ry
     estimated scf accuracy    <       2.96640386 Ry

     iteration # 72     ecut=    60.00 Ry     beta= 0.40
     Davidson diagonalization with overlap

---- Real-time Memory Report at c_bands before calling an iterative solver
          1988 MiB given to the printing process from OS
          1617 MiB allocation reported by mallinfo(arena+hblkhd)
         23845 MiB available memory on the node where the printing process lives
------------------
     ethr =  6.38E-04,  avg # of iterations =  1.2

     total cpu time spent up to now is    20078.4 secs

     total energy              =   -1542.27593861 Ry
     estimated scf accuracy    <       2.54511322 Ry

     iteration # 73     ecut=    60.00 Ry     beta= 0.40
     Davidson diagonalization with overlap

---- Real-time Memory Report at c_bands before calling an iterative solver
          1988 MiB given to the printing process from OS
          1617 MiB allocation reported by mallinfo(arena+hblkhd)
         24066 MiB available memory on the node where the printing process lives
------------------
     ethr =  6.38E-04,  avg # of iterations = 12.5

     negative rho (up, down):  1.153E-04 0.000E+00

     total cpu time spent up to now is    20397.4 secs

     total energy              =   -1542.64689230 Ry
     estimated scf accuracy    <       2.56153210 Ry

     iteration # 74     ecut=    60.00 Ry     beta= 0.40
     Davidson diagonalization with overlap

---- Real-time Memory Report at c_bands before calling an iterative solver
          1988 MiB given to the printing process from OS
          1617 MiB allocation reported by mallinfo(arena+hblkhd)
         23953 MiB available memory on the node where the printing process lives
------------------
     ethr =  6.38E-04,  avg # of iterations = 13.9

     total cpu time spent up to now is    20775.7 secs

     total energy              =   -1542.05301486 Ry
     estimated scf accuracy    <      41.71555667 Ry

     iteration # 75     ecut=    60.00 Ry     beta= 0.40
     Davidson diagonalization with overlap

---- Real-time Memory Report at c_bands before calling an iterative solver
          1988 MiB given to the printing process from OS
          1617 MiB allocation reported by mallinfo(arena+hblkhd)
         24076 MiB available memory on the node where the printing process lives
------------------
     ethr =  6.38E-04,  avg # of iterations = 11.8

     total cpu time spent up to now is    21143.4 secs

     total energy              =   -1542.40265776 Ry
     estimated scf accuracy    <       5.26508130 Ry

     iteration # 76     ecut=    60.00 Ry     beta= 0.40
     Davidson diagonalization with overlap

---- Real-time Memory Report at c_bands before calling an iterative solver
          1988 MiB given to the printing process from OS
          1617 MiB allocation reported by mallinfo(arena+hblkhd)
         23875 MiB available memory on the node where the printing process lives
------------------
     ethr =  6.38E-04,  avg # of iterations =  1.0

     total cpu time spent up to now is    21388.7 secs

     total energy              =   -1542.17956609 Ry
     estimated scf accuracy    <       4.86254993 Ry

     iteration # 77     ecut=    60.00 Ry     beta= 0.40
     Davidson diagonalization with overlap

---- Real-time Memory Report at c_bands before calling an iterative solver
          1988 MiB given to the printing process from OS
          1617 MiB allocation reported by mallinfo(arena+hblkhd)
         23864 MiB available memory on the node where the printing process lives
------------------
     ethr =  6.38E-04,  avg # of iterations = 12.0

     total cpu time spent up to now is    21701.1 secs

     total energy              =   -1542.32093690 Ry
     estimated scf accuracy    <       0.29514770 Ry

     iteration # 78     ecut=    60.00 Ry     beta= 0.40
     Davidson diagonalization with overlap

---- Real-time Memory Report at c_bands before calling an iterative solver
          1988 MiB given to the printing process from OS
          1617 MiB allocation reported by mallinfo(arena+hblkhd)
         23844 MiB available memory on the node where the printing process lives
------------------
     ethr =  1.54E-04,  avg # of iterations =  9.8

     total cpu time spent up to now is    22004.0 secs

     total energy              =   -1542.35926598 Ry
     estimated scf accuracy    <       0.43420297 Ry

     iteration # 79     ecut=    60.00 Ry     beta= 0.40
     Davidson diagonalization with overlap

---- Real-time Memory Report at c_bands before calling an iterative solver
          1988 MiB given to the printing process from OS
          1617 MiB allocation reported by mallinfo(arena+hblkhd)
         23862 MiB available memory on the node where the printing process lives
------------------
     ethr =  1.54E-04,  avg # of iterations =  2.4

     total cpu time spent up to now is    22251.5 secs

     total energy              =   -1542.36477167 Ry
     estimated scf accuracy    <       0.54730536 Ry

     iteration # 80     ecut=    60.00 Ry     beta= 0.40
     Davidson diagonalization with overlap

---- Real-time Memory Report at c_bands before calling an iterative solver
          1988 MiB given to the printing process from OS
          1617 MiB allocation reported by mallinfo(arena+hblkhd)
         23894 MiB available memory on the node where the printing process lives
------------------
     ethr =  1.54E-04,  avg # of iterations =  1.1

     total cpu time spent up to now is    22481.4 secs

     total energy              =   -1542.30471679 Ry
     estimated scf accuracy    <       0.58157072 Ry

     iteration # 81     ecut=    60.00 Ry     beta= 0.40
     Davidson diagonalization with overlap

---- Real-time Memory Report at c_bands before calling an iterative solver
          1988 MiB given to the printing process from OS
          1617 MiB allocation reported by mallinfo(arena+hblkhd)
         24102 MiB available memory on the node where the printing process lives
------------------
     ethr =  1.54E-04,  avg # of iterations = 12.2

     negative rho (up, down):  7.879E-04 0.000E+00

     total cpu time spent up to now is    22840.6 secs

     total energy              =   -1543.02699839 Ry
     estimated scf accuracy    <       3.98947716 Ry

     iteration # 82     ecut=    60.00 Ry     beta= 0.40
     Davidson diagonalization with overlap

---- Real-time Memory Report at c_bands before calling an iterative solver
          1988 MiB given to the printing process from OS
          1617 MiB allocation reported by mallinfo(arena+hblkhd)
         23557 MiB available memory on the node where the printing process lives
------------------
     ethr =  1.54E-04,  avg # of iterations = 17.4

     total cpu time spent up to now is    23312.6 secs

     total energy              =   -1543.04225911 Ry
     estimated scf accuracy    <      46.30215823 Ry

     iteration # 83     ecut=    60.00 Ry     beta= 0.40
     Davidson diagonalization with overlap

---- Real-time Memory Report at c_bands before calling an iterative solver
          1988 MiB given to the printing process from OS
          1617 MiB allocation reported by mallinfo(arena+hblkhd)
         23562 MiB available memory on the node where the printing process lives
------------------
     ethr =  1.54E-04,  avg # of iterations =  9.5

     total cpu time spent up to now is    23627.4 secs

     total energy              =   -1542.35229464 Ry
     estimated scf accuracy    <      35.56450831 Ry

     iteration # 84     ecut=    60.00 Ry     beta= 0.40
     Davidson diagonalization with overlap

---- Real-time Memory Report at c_bands before calling an iterative solver
          1988 MiB given to the printing process from OS
          1617 MiB allocation reported by mallinfo(arena+hblkhd)
         23556 MiB available memory on the node where the printing process lives
------------------
     c_bands:  1 eigenvalues not converged
     ethr =  1.54E-04,  avg # of iterations = 13.8

     total cpu time spent up to now is    24033.2 secs

     total energy              =   -1542.05711561 Ry
     estimated scf accuracy    <       9.28966199 Ry

     iteration # 85     ecut=    60.00 Ry     beta= 0.40
     Davidson diagonalization with overlap

---- Real-time Memory Report at c_bands before calling an iterative solver
          1988 MiB given to the printing process from OS
          1617 MiB allocation reported by mallinfo(arena+hblkhd)
         23621 MiB available memory on the node where the printing process lives
------------------
     c_bands:  2 eigenvalues not converged
     c_bands:  2 eigenvalues not converged
     c_bands:  1 eigenvalues not converged
     c_bands:  2 eigenvalues not converged
     ethr =  1.54E-04,  avg # of iterations = 18.6

     total cpu time spent up to now is    24523.3 secs

     total energy              =   -1542.34704946 Ry
     estimated scf accuracy    <       1.04563146 Ry

     iteration # 86     ecut=    60.00 Ry     beta= 0.40
     Davidson diagonalization with overlap

---- Real-time Memory Report at c_bands before calling an iterative solver
          1988 MiB given to the printing process from OS
          1617 MiB allocation reported by mallinfo(arena+hblkhd)
         23476 MiB available memory on the node where the printing process lives
------------------
     ethr =  1.54E-04,  avg # of iterations =  1.5

     total cpu time spent up to now is    24764.1 secs

     total energy              =   -1542.31601713 Ry
     estimated scf accuracy    <       0.83958924 Ry

     iteration # 87     ecut=    60.00 Ry     beta= 0.40
     Davidson diagonalization with overlap

---- Real-time Memory Report at c_bands before calling an iterative solver
          1988 MiB given to the printing process from OS
          1617 MiB allocation reported by mallinfo(arena+hblkhd)
         23489 MiB available memory on the node where the printing process lives
------------------
     ethr =  1.54E-04,  avg # of iterations =  8.4

     total cpu time spent up to now is    25045.9 secs

     total energy              =   -1542.33981871 Ry
     estimated scf accuracy    <       0.10015441 Ry

     iteration # 88     ecut=    60.00 Ry     beta= 0.40
     Davidson diagonalization with overlap

---- Real-time Memory Report at c_bands before calling an iterative solver
          1988 MiB given to the printing process from OS
          1617 MiB allocation reported by mallinfo(arena+hblkhd)
         23482 MiB available memory on the node where the printing process lives
------------------
     ethr =  5.22E-05,  avg # of iterations =  6.1

     total cpu time spent up to now is    25332.6 secs

     total energy              =   -1542.33611278 Ry
     estimated scf accuracy    <       0.13202861 Ry

     iteration # 89     ecut=    60.00 Ry     beta= 0.40
     Davidson diagonalization with overlap

---- Real-time Memory Report at c_bands before calling an iterative solver
          1988 MiB given to the printing process from OS
          1617 MiB allocation reported by mallinfo(arena+hblkhd)
         23571 MiB available memory on the node where the printing process lives
------------------
     ethr =  5.22E-05,  avg # of iterations =  9.5

     total cpu time spent up to now is    25621.5 secs

     total energy              =   -1542.37383853 Ry
     estimated scf accuracy    <       0.13341411 Ry

     iteration # 90     ecut=    60.00 Ry     beta= 0.40
     Davidson diagonalization with overlap

---- Real-time Memory Report at c_bands before calling an iterative solver
          1988 MiB given to the printing process from OS
          1617 MiB allocation reported by mallinfo(arena+hblkhd)
         23585 MiB available memory on the node where the printing process lives
------------------
     c_bands:  1 eigenvalues not converged
     ethr =  5.22E-05,  avg # of iterations = 17.8

     total cpu time spent up to now is    26060.4 secs

     total energy              =   -1542.54126288 Ry
     estimated scf accuracy    <       7.47410153 Ry

     iteration # 91     ecut=    60.00 Ry     beta= 0.40
     Davidson diagonalization with overlap

---- Real-time Memory Report at c_bands before calling an iterative solver
          1988 MiB given to the printing process from OS
          1617 MiB allocation reported by mallinfo(arena+hblkhd)
         23466 MiB available memory on the node where the printing process lives
------------------
     ethr =  5.22E-05,  avg # of iterations =  1.5

     total cpu time spent up to now is    26304.5 secs

     total energy              =   -1542.53422465 Ry
     estimated scf accuracy    <       7.66248062 Ry

     iteration # 92     ecut=    60.00 Ry     beta= 0.40
     Davidson diagonalization with overlap

---- Real-time Memory Report at c_bands before calling an iterative solver
          1988 MiB given to the printing process from OS
          1617 MiB allocation reported by mallinfo(arena+hblkhd)
         23485 MiB available memory on the node where the printing process lives
------------------
     ethr =  5.22E-05,  avg # of iterations =  6.1

     total cpu time spent up to now is    26578.6 secs

     total energy              =   -1542.45344486 Ry
     estimated scf accuracy    <       8.26311766 Ry

     iteration # 93     ecut=    60.00 Ry     beta= 0.40
     Davidson diagonalization with overlap

---- Real-time Memory Report at c_bands before calling an iterative solver
          1988 MiB given to the printing process from OS
          1617 MiB allocation reported by mallinfo(arena+hblkhd)
         23696 MiB available memory on the node where the printing process lives
------------------
     ethr =  5.22E-05,  avg # of iterations =  6.0

     total cpu time spent up to now is    26852.9 secs

     total energy              =   -1542.22557925 Ry
     estimated scf accuracy    <       7.12567057 Ry

     iteration # 94     ecut=    60.00 Ry     beta= 0.40
     Davidson diagonalization with overlap

---- Real-time Memory Report at c_bands before calling an iterative solver
          1988 MiB given to the printing process from OS
          1617 MiB allocation reported by mallinfo(arena+hblkhd)
         23502 MiB available memory on the node where the printing process lives
------------------
     ethr =  5.22E-05,  avg # of iterations = 16.9

     total cpu time spent up to now is    27324.8 secs

     total energy              =   -1542.33970235 Ry
     estimated scf accuracy    <       0.37015964 Ry

     iteration # 95     ecut=    60.00 Ry     beta= 0.40
     Davidson diagonalization with overlap

---- Real-time Memory Report at c_bands before calling an iterative solver
          1988 MiB given to the printing process from OS
          1617 MiB allocation reported by mallinfo(arena+hblkhd)
         23563 MiB available memory on the node where the printing process lives
------------------
     ethr =  5.22E-05,  avg # of iterations =  3.0

     total cpu time spent up to now is    27601.7 secs

     total energy              =   -1542.33698425 Ry
     estimated scf accuracy    <       0.23990561 Ry

     iteration # 96     ecut=    60.00 Ry     beta= 0.40
     Davidson diagonalization with overlap

---- Real-time Memory Report at c_bands before calling an iterative solver
          1988 MiB given to the printing process from OS
          1617 MiB allocation reported by mallinfo(arena+hblkhd)
         23557 MiB available memory on the node where the printing process lives
------------------
     ethr =  5.22E-05,  avg # of iterations = 12.4

     total cpu time spent up to now is    27932.0 secs

     total energy              =   -1542.33329305 Ry
     estimated scf accuracy    <       0.74879968 Ry

     iteration # 97     ecut=    60.00 Ry     beta= 0.40
     Davidson diagonalization with overlap

---- Real-time Memory Report at c_bands before calling an iterative solver
          1988 MiB given to the printing process from OS
          1617 MiB allocation reported by mallinfo(arena+hblkhd)
         23557 MiB available memory on the node where the printing process lives
------------------
     ethr =  5.22E-05,  avg # of iterations = 10.2

     total cpu time spent up to now is    28211.7 secs

     total energy              =   -1542.30804422 Ry
     estimated scf accuracy    <       0.22101335 Ry

     iteration # 98     ecut=    60.00 Ry     beta= 0.40
     Davidson diagonalization with overlap

---- Real-time Memory Report at c_bands before calling an iterative solver
          1988 MiB given to the printing process from OS
          1617 MiB allocation reported by mallinfo(arena+hblkhd)
         23495 MiB available memory on the node where the printing process lives
------------------
     c_bands:  2 eigenvalues not converged
     c_bands:  1 eigenvalues not converged
     c_bands:  2 eigenvalues not converged
     ethr =  5.22E-05,  avg # of iterations = 15.9

     total cpu time spent up to now is    28630.6 secs

     total energy              =   -1542.34663094 Ry
     estimated scf accuracy    <       1.67877281 Ry

     iteration # 99     ecut=    60.00 Ry     beta= 0.40
     Davidson diagonalization with overlap

---- Real-time Memory Report at c_bands before calling an iterative solver
          1988 MiB given to the printing process from OS
          1617 MiB allocation reported by mallinfo(arena+hblkhd)
         23664 MiB available memory on the node where the printing process lives
------------------
     ethr =  5.22E-05,  avg # of iterations =  4.0

     total cpu time spent up to now is    28893.0 secs

     total energy              =   -1542.29554189 Ry
     estimated scf accuracy    <       1.40877515 Ry

     iteration #100     ecut=    60.00 Ry     beta= 0.40
     Davidson diagonalization with overlap

---- Real-time Memory Report at c_bands before calling an iterative solver
          1988 MiB given to the printing process from OS
          1617 MiB allocation reported by mallinfo(arena+hblkhd)
         23507 MiB available memory on the node where the printing process lives
------------------
     ethr =  5.22E-05,  avg # of iterations = 15.2

     total cpu time spent up to now is    29254.9 secs

     total energy              =   -1542.32845505 Ry
     estimated scf accuracy    <       0.52580029 Ry

     End of self-consistent calculation

     convergence NOT achieved after 100 iterations: stopping

     Writing config to output data dir ./tmp/LiFePO4.save/ :
     XML data file, charge density

     init_run     :    805.82s CPU    128.60s WALL (       1 calls)
     electrons    : 199299.12s CPU  29127.63s WALL (       1 calls)

     Called by init_run:
     wfcinit      :    790.75s CPU    122.95s WALL (       1 calls)
     wfcinit:atom :      1.52s CPU      2.02s WALL (       8 calls)
     wfcinit:wfcr :    774.75s CPU    108.78s WALL (       8 calls)
     potinit      :      2.23s CPU      1.09s WALL (       1 calls)
     hinit0       :     12.40s CPU      4.08s WALL (       1 calls)

     Called by electrons:
     c_bands      : 169833.48s CPU  24013.78s WALL (     100 calls)
     sum_band     :  27141.08s CPU   4583.03s WALL (     100 calls)
     v_of_rho     :    172.79s CPU     52.84s WALL (     101 calls)
     v_h          :     15.09s CPU      4.47s WALL (     101 calls)
     v_xc         :    157.69s CPU     48.37s WALL (     101 calls)
     mix_rho      :   2149.45s CPU    473.19s WALL (     100 calls)

     Called by c_bands:
     init_us_2    :    754.51s CPU    709.33s WALL (    1608 calls)
     cegterg      : 167542.22s CPU  23355.46s WALL (     800 calls)

     Called by sum_band:
     sum_band:wei :      0.04s CPU      0.00s WALL (     100 calls)
     sum_band:loo :  27115.65s CPU   4575.96s WALL (     100 calls)
     sum_band:buf :     45.91s CPU     60.82s WALL (     800 calls)
     sum_band:ini :    334.21s CPU    353.98s WALL (     800 calls)

     Called by *egterg:
     cdiaghg      :   1058.24s CPU    134.36s WALL (    4961 calls)
     cegterg:over :   4227.49s CPU    537.11s WALL (    4161 calls)
     cegterg:upda :   2591.36s CPU    342.57s WALL (    4161 calls)
     cegterg:last :   3378.42s CPU    431.17s WALL (    1431 calls)
     h_psi        : 153886.08s CPU  21540.26s WALL (    4969 calls)
     g_psi        :    618.71s CPU     78.02s WALL (    4161 calls)

     Called by h_psi:
     h_psi:calbec :   8514.91s CPU   1116.76s WALL (    4969 calls)
     vloc_psi     : 138495.99s CPU  19533.88s WALL (    4969 calls)
     add_vuspsi   :   6363.28s CPU    801.73s WALL (    4969 calls)

     General routines
     calbec       :   8514.52s CPU   1116.71s WALL (    4969 calls)
     fft          :     80.87s CPU     13.21s WALL (    1011 calls)
     ffts         :    644.92s CPU    107.61s WALL (    8646 calls)
     fftw         : 156033.72s CPU  20656.03s WALL (  444644 calls)
     davcio       :      0.00s CPU      0.87s WALL (      26 calls)

     Parallel routines

     PWSCF        :   2d 7h35m CPU      8h 7m WALL


   This run was terminated on:   8: 5:50  25Nov2025            

=------------------------------------------------------------------------------=
   JOB DONE.
=------------------------------------------------------------------------------=
