
     Program PWSCF v.7.4 starts on 24Nov2025 at 16:55: 0 

     This program is part of the open-source Quantum ESPRESSO suite
     for quantum simulation of materials; please cite
         "P. Giannozzi et al., J. Phys.:Condens. Matter 21 395502 (2009);
         "P. Giannozzi et al., J. Phys.:Condens. Matter 29 465901 (2017);
         "P. Giannozzi et al., J. Chem. Phys. 152 154105 (2020);
          URL http://www.quantum-espresso.org", 
     in publications or presentations arising from this work. More details at
     http://www.quantum-espresso.org/quote

     Parallel version (MPI & OpenMP), running on       1 processor cores
     Number of MPI processes:                 1
     Threads/MPI process:                     1

     MPI processes distributed on     1 nodes
     29511 MiB available memory on the printing compute node when the environment starts

     Waiting for input...
     Reading input from standard input

     Current dimensions of program PWSCF are:
     Max number of different atomic species (ntypx) = 10
     Max number of k-points (npk) =  40000
     Max angular momentum in pseudopotentials (lmaxx) =  4

     Subspace diagonalization in iterative solution of the eigenvalue problem:
     a serial algorithm will be used


     G-vector sticks info
     --------------------
     sticks:   dense  smooth     PW     G-vecs:    dense   smooth      PW
     Sum       22241   11113   3139               742039   262503   39321

     Using Slab Decomposition



     bravais-lattice index     =            0
     lattice parameter (alat)  =      38.6872  a.u.
     unit-cell volume          =    7679.5612 (a.u.)^3
     number of atoms/cell      =           28
     number of atomic types    =            4
     number of electrons       =       192.00
     number of Kohn-Sham states=           96
     kinetic-energy cutoff     =      40.0000  Ry
     charge density cutoff     =     320.0000  Ry
     scf convergence threshold =      1.0E-06
     mixing beta               =       0.4000
     number of iterations used =            8  local-TF  mixing
     Exchange-correlation= PBE
                           (   1   4   3   4   0   0   0)

     celldm(1)=  38.687214  celldm(2)=   0.000000  celldm(3)=   0.000000
     celldm(4)=   0.000000  celldm(5)=   0.000000  celldm(6)=   0.000000

     crystal axes: (cart. coord. in units of alat)
               a(1) = (   1.000000   0.000000   0.000000 )  
               a(2) = (   0.000000   0.583298   0.000000 )  
               a(3) = (   0.000000   0.000000   0.227375 )  

     reciprocal axes: (cart. coord. in units 2 pi/alat)
               b(1) = (  1.000000  0.000000  0.000000 )  
               b(2) = (  0.000000  1.714389  0.000000 )  
               b(3) = (  0.000000  0.000000  4.398014 )  


     PseudoPot. # 1 for Li read from file:
     ./Li.upf
     MD5 check sum: dbcf0ea72988e720c8c712b432d51b0d
     Pseudo is Norm-conserving, Zval =  3.0
     Generated using ONCVPSP code by D. R. Hamann
     Using radial grid of 1944 points,  4 beta functions with: 
                l(1) =   0
                l(2) =   0
                l(3) =   1
                l(4) =   1

     PseudoPot. # 2 for Fe read from file:
     ./Fe.upf
     MD5 check sum: a5f07f5dca5be6cacb81ceb54992e4ae
     Pseudo is Norm-conserving + core correction, Zval = 16.0
     Generated using ONCVPSP code by D. R. Hamann
     Using radial grid of 1426 points,  6 beta functions with: 
                l(1) =   0
                l(2) =   0
                l(3) =   1
                l(4) =   1
                l(5) =   2
                l(6) =   2

     PseudoPot. # 3 for P  read from file:
     ./P.upf
     MD5 check sum: c802fd0635a0ed1615482a1b584dae5b
     Pseudo is Norm-conserving + core correction, Zval =  5.0
     Generated using ONCVPSP code by D. R. Hamann
     Using radial grid of 1298 points,  6 beta functions with: 
                l(1) =   0
                l(2) =   0
                l(3) =   1
                l(4) =   1
                l(5) =   2
                l(6) =   2

     PseudoPot. # 4 for O  read from file:
     ./O.upf
     MD5 check sum: 3e3f909f7470e8921608ab6b1f57bbae
     Pseudo is Norm-conserving + core correction, Zval =  6.0
     Generated using ONCVPSP code by D. R. Hamann
     Using radial grid of  936 points,  5 beta functions with: 
                l(1) =   0
                l(2) =   0
                l(3) =   1
                l(4) =   1
                l(5) =   2

     atomic species   valence    mass     pseudopotential
     Li                3.00     6.94000     Li( 1.00)
     Fe               16.00    55.84500     Fe( 1.00)
     P                 5.00    30.97400     P ( 1.00)
     O                 6.00    15.99900     O ( 1.00)

     No symmetry found


                                    s                        frac. trans.

      isym =  1     identity                                     

 cryst.   s( 1) = (     1          0          0      )
                  (     0          1          0      )
                  (     0          0          1      )

 cart.    s( 1) = (  1.0000000  0.0000000  0.0000000 )
                  (  0.0000000  1.0000000  0.0000000 )
                  (  0.0000000  0.0000000  1.0000000 )


   Cartesian axes

     site n.     atom                  positions (alat units)
         1        Li     tau(   1) = (   0.0000000   0.0000000   0.0000000  )
         2        Li     tau(   2) = (   0.1136877   0.1458247   0.2500001  )
         3        Li     tau(   3) = (   0.1136877   0.0000000   0.2500001  )
         4        Li     tau(   4) = (   0.0000000   0.1458247   0.0000000  )
         5        Fe     tau(   5) = (   0.1204783   0.0729123   0.3905758  )
         6        Fe     tau(   6) = (   0.0067906   0.2187370   0.3594245  )
         7        Fe     tau(   7) = (   0.2205844   0.0729123   0.1405757  )
         8        Fe     tau(   8) = (   0.1068971   0.2187370   0.1094244  )
         9        P      tau(   9) = (   0.0951843   0.0729123   0.0469330  )
        10        P      tau(  10) = (   0.2088720   0.2187370   0.2030666  )
        11        P      tau(  11) = (   0.0185035   0.0729123   0.2969331  )
        12        P      tau(  12) = (   0.1321907   0.2187370   0.4530667  )
        13        O      tau(  13) = (   0.1693461   0.0729123   0.0471152  )
        14        O      tau(  14) = (   0.1622859   0.1591114   0.4170773  )
        15        O      tau(  15) = (   0.1622859   0.2783622   0.4170773  )
        16        O      tau(  16) = (   0.0580294   0.2187370   0.4528845  )
        17        O      tau(  17) = (   0.1614057   0.2187370   0.0221542  )
        18        O      tau(  18) = (   0.0556584   0.2187370   0.2028844  )
        19        O      tau(  19) = (   0.0650896   0.0132872   0.0829229  )
        20        O      tau(  20) = (   0.0485981   0.1325375   0.3329225  )
        21        O      tau(  21) = (   0.1787773   0.1591114   0.1670772  )
        22        O      tau(  22) = (   0.1787773   0.2783622   0.1670772  )
        23        O      tau(  23) = (   0.0659698   0.0729123   0.4778455  )
        24        O      tau(  24) = (   0.0477179   0.0729123   0.2278459  )
        25        O      tau(  25) = (   0.1796576   0.2187370   0.2721543  )
        26        O      tau(  26) = (   0.1717171   0.0729123   0.2971153  )
        27        O      tau(  27) = (   0.0485981   0.0132872   0.3329225  )
        28        O      tau(  28) = (   0.0650896   0.1325375   0.0829229  )

   Crystallographic axes

     site n.     atom                  positions (cryst. coord.)
         1        Li     tau(   1) = (  0.0000000  0.0000000  0.0000000  )
         2        Li     tau(   2) = (  0.1136877  0.2500002  1.0995040  )
         3        Li     tau(   3) = (  0.1136877  0.0000000  1.0995040  )
         4        Li     tau(   4) = (  0.0000000  0.2500002  0.0000000  )
         5        Fe     tau(   5) = (  0.1204783  0.1250001  1.7177577  )
         6        Fe     tau(   6) = (  0.0067906  0.3750003  1.5807542  )
         7        Fe     tau(   7) = (  0.2205844  0.1250001  0.6182537  )
         8        Fe     tau(   8) = (  0.1068971  0.3750003  0.4812502  )
         9        P      tau(   9) = (  0.0951843  0.1250001  0.2064118  )
        10        P      tau(  10) = (  0.2088720  0.3750003  0.8930900  )
        11        P      tau(  11) = (  0.0185035  0.1250001  1.3059158  )
        12        P      tau(  12) = (  0.1321907  0.3750003  1.9925940  )
        13        O      tau(  13) = (  0.1693461  0.1250001  0.2072131  )
        14        O      tau(  14) = (  0.1622859  0.2727787  1.8343119  )
        15        O      tau(  15) = (  0.1622859  0.4772210  1.8343119  )
        16        O      tau(  16) = (  0.0580294  0.3750003  1.9917927  )
        17        O      tau(  17) = (  0.1614057  0.3750003  0.0974346  )
        18        O      tau(  18) = (  0.0556584  0.3750003  0.8922887  )
        19        O      tau(  19) = (  0.0650896  0.0227794  0.3646961  )
        20        O      tau(  20) = (  0.0485981  0.2272208  1.4641979  )
        21        O      tau(  21) = (  0.1787773  0.2727787  0.7348079  )
        22        O      tau(  22) = (  0.1787773  0.4772210  0.7348079  )
        23        O      tau(  23) = (  0.0659698  0.1250001  2.1015712  )
        24        O      tau(  24) = (  0.0477179  0.1250001  1.0020694  )
        25        O      tau(  25) = (  0.1796576  0.3750003  1.1969386  )
        26        O      tau(  26) = (  0.1717171  0.1250001  1.3067171  )
        27        O      tau(  27) = (  0.0485981  0.0227794  1.4641979  )
        28        O      tau(  28) = (  0.0650896  0.2272208  0.3646961  )

     number of k points=    36
                       cart. coord. in units 2pi/alat
        k(    1) = (   0.0000000   0.0000000   0.0000000), wk =   0.0312500
        k(    2) = (   0.0000000   0.0000000   0.5497518), wk =   0.0625000
        k(    3) = (   0.0000000   0.0000000   1.0995036), wk =   0.0625000
        k(    4) = (   0.0000000   0.0000000   1.6492553), wk =   0.0625000
        k(    5) = (   0.0000000   0.0000000  -2.1990071), wk =   0.0312500
        k(    6) = (   0.0000000   0.4285972   0.0000000), wk =   0.0625000
        k(    7) = (   0.0000000   0.4285972   0.5497518), wk =   0.0625000
        k(    8) = (   0.0000000   0.4285972   1.0995036), wk =   0.0625000
        k(    9) = (   0.0000000   0.4285972   1.6492553), wk =   0.0625000
        k(   10) = (   0.0000000   0.4285972  -2.1990071), wk =   0.0625000
        k(   11) = (   0.0000000  -0.8571944   0.0000000), wk =   0.0312500
        k(   12) = (   0.0000000  -0.8571944   0.5497518), wk =   0.0625000
        k(   13) = (   0.0000000  -0.8571944   1.0995036), wk =   0.0625000
        k(   14) = (   0.0000000  -0.8571944   1.6492553), wk =   0.0625000
        k(   15) = (   0.0000000  -0.8571944  -2.1990071), wk =   0.0312500
        k(   16) = (  -0.5000000   0.0000000   0.0000000), wk =   0.0312500
        k(   17) = (  -0.5000000   0.0000000   0.5497518), wk =   0.0625000
        k(   18) = (  -0.5000000   0.0000000   1.0995036), wk =   0.0625000
        k(   19) = (  -0.5000000   0.0000000   1.6492553), wk =   0.0625000
        k(   20) = (  -0.5000000   0.0000000  -2.1990071), wk =   0.0312500
        k(   21) = (  -0.5000000   0.4285972   0.0000000), wk =   0.0625000
        k(   22) = (  -0.5000000   0.4285972   0.5497518), wk =   0.0625000
        k(   23) = (  -0.5000000   0.4285972   1.0995036), wk =   0.0625000
        k(   24) = (  -0.5000000   0.4285972   1.6492553), wk =   0.0625000
        k(   25) = (  -0.5000000   0.4285972  -2.1990071), wk =   0.0625000
        k(   26) = (  -0.5000000  -0.8571944   0.0000000), wk =   0.0312500
        k(   27) = (  -0.5000000  -0.8571944   0.5497518), wk =   0.0625000
        k(   28) = (  -0.5000000  -0.8571944   1.0995036), wk =   0.0625000
        k(   29) = (  -0.5000000  -0.8571944   1.6492553), wk =   0.0625000
        k(   30) = (  -0.5000000  -0.8571944  -2.1990071), wk =   0.0312500
        k(   31) = (   0.0000000  -0.4285972   0.5497518), wk =   0.0625000
        k(   32) = (   0.0000000  -0.4285972   1.0995036), wk =   0.0625000
        k(   33) = (   0.0000000  -0.4285972   1.6492553), wk =   0.0625000
        k(   34) = (   0.5000000  -0.4285972   0.5497518), wk =   0.0625000
        k(   35) = (   0.5000000  -0.4285972   1.0995036), wk =   0.0625000
        k(   36) = (   0.5000000  -0.4285972   1.6492553), wk =   0.0625000

                       cryst. coord.
        k(    1) = (   0.0000000   0.0000000   0.0000000), wk =   0.0312500
        k(    2) = (   0.0000000   0.0000000   0.1250000), wk =   0.0625000
        k(    3) = (   0.0000000   0.0000000   0.2500000), wk =   0.0625000
        k(    4) = (   0.0000000   0.0000000   0.3750000), wk =   0.0625000
        k(    5) = (   0.0000000   0.0000000  -0.5000000), wk =   0.0312500
        k(    6) = (   0.0000000   0.2500000   0.0000000), wk =   0.0625000
        k(    7) = (   0.0000000   0.2500000   0.1250000), wk =   0.0625000
        k(    8) = (   0.0000000   0.2500000   0.2500000), wk =   0.0625000
        k(    9) = (   0.0000000   0.2500000   0.3750000), wk =   0.0625000
        k(   10) = (   0.0000000   0.2500000  -0.5000000), wk =   0.0625000
        k(   11) = (   0.0000000  -0.5000000   0.0000000), wk =   0.0312500
        k(   12) = (   0.0000000  -0.5000000   0.1250000), wk =   0.0625000
        k(   13) = (   0.0000000  -0.5000000   0.2500000), wk =   0.0625000
        k(   14) = (   0.0000000  -0.5000000   0.3750000), wk =   0.0625000
        k(   15) = (   0.0000000  -0.5000000  -0.5000000), wk =   0.0312500
        k(   16) = (  -0.5000000   0.0000000   0.0000000), wk =   0.0312500
        k(   17) = (  -0.5000000   0.0000000   0.1250000), wk =   0.0625000
        k(   18) = (  -0.5000000   0.0000000   0.2500000), wk =   0.0625000
        k(   19) = (  -0.5000000   0.0000000   0.3750000), wk =   0.0625000
        k(   20) = (  -0.5000000   0.0000000  -0.5000000), wk =   0.0312500
        k(   21) = (  -0.5000000   0.2500000   0.0000000), wk =   0.0625000
        k(   22) = (  -0.5000000   0.2500000   0.1250000), wk =   0.0625000
        k(   23) = (  -0.5000000   0.2500000   0.2500000), wk =   0.0625000
        k(   24) = (  -0.5000000   0.2500000   0.3750000), wk =   0.0625000
        k(   25) = (  -0.5000000   0.2500000  -0.5000000), wk =   0.0625000
        k(   26) = (  -0.5000000  -0.5000000   0.0000000), wk =   0.0312500
        k(   27) = (  -0.5000000  -0.5000000   0.1250000), wk =   0.0625000
        k(   28) = (  -0.5000000  -0.5000000   0.2500000), wk =   0.0625000
        k(   29) = (  -0.5000000  -0.5000000   0.3750000), wk =   0.0625000
        k(   30) = (  -0.5000000  -0.5000000  -0.5000000), wk =   0.0312500
        k(   31) = (   0.0000000  -0.2500000   0.1250000), wk =   0.0625000
        k(   32) = (   0.0000000  -0.2500000   0.2500000), wk =   0.0625000
        k(   33) = (   0.0000000  -0.2500000   0.3750000), wk =   0.0625000
        k(   34) = (   0.5000000  -0.2500000   0.1250000), wk =   0.0625000
        k(   35) = (   0.5000000  -0.2500000   0.2500000), wk =   0.0625000
        k(   36) = (   0.5000000  -0.2500000   0.3750000), wk =   0.0625000

     Dense  grid:   742039 G-vectors     FFT dimensions: ( 225, 135,  54)

     Smooth grid:   262503 G-vectors     FFT dimensions: ( 160,  96,  36)

     Dynamical RAM for                 wfc:      48.06 MB

     Dynamical RAM for     wfc (w. buffer):    1778.17 MB

     Dynamical RAM for           str. fact:      45.29 MB

     Dynamical RAM for           local pot:       0.00 MB

     Dynamical RAM for          nlocal pot:     192.23 MB

     Dynamical RAM for                qrad:       5.74 MB

     Dynamical RAM for          rho,v,vnew:      71.51 MB

     Dynamical RAM for               rhoin:      23.84 MB

     Dynamical RAM for            rho*nmix:     181.16 MB

     Dynamical RAM for           G-vectors:      44.46 MB

     Dynamical RAM for          h,s,v(r/c):       1.69 MB

     Dynamical RAM for          <psi|beta>:       0.56 MB

     Dynamical RAM for                 psi:      96.12 MB

     Dynamical RAM for                hpsi:      96.12 MB

     Dynamical RAM for      wfcinit/wfcrot:      96.33 MB

     Estimated static dynamical RAM per process >       2.23 GB

     Estimated max dynamical RAM per process >       2.71 GB

     Initial potential from superposition of free atoms

     starting charge     191.9796, renormalised to     192.0000

     negative rho (up, down):  1.308E-04 0.000E+00
     Starting wfcs are  128 randomized atomic wfcs

     total cpu time spent up to now is      518.7 secs

     Self-consistent Calculation

     iteration #  1     ecut=    40.00 Ry     beta= 0.40
     Davidson diagonalization with overlap

---- Real-time Memory Report at c_bands before calling an iterative solver
          2340 MiB given to the printing process from OS
         -1830 MiB allocation reported by mallinfo(arena+hblkhd)
         27276 MiB available memory on the node where the printing process lives
------------------
     ethr =  1.00E-02,  avg # of iterations =  5.1

     negative rho (up, down):  4.715E-04 0.000E+00

     total cpu time spent up to now is     2406.2 secs

     total energy              =   -1529.88025373 Ry
     estimated scf accuracy    <      29.00404914 Ry

     iteration #  2     ecut=    40.00 Ry     beta= 0.40
     Davidson diagonalization with overlap

---- Real-time Memory Report at c_bands before calling an iterative solver
          2491 MiB given to the printing process from OS
         -1737 MiB allocation reported by mallinfo(arena+hblkhd)
         27092 MiB available memory on the node where the printing process lives
------------------
     ethr =  1.00E-02,  avg # of iterations =  1.0

     negative rho (up, down):  1.680E-02 0.000E+00

     total cpu time spent up to now is     3319.2 secs

     total energy              =   -1522.89583405 Ry
     estimated scf accuracy    <      15.43830528 Ry

     iteration #  3     ecut=    40.00 Ry     beta= 0.40
     Davidson diagonalization with overlap

---- Real-time Memory Report at c_bands before calling an iterative solver
          2546 MiB given to the printing process from OS
         -1729 MiB allocation reported by mallinfo(arena+hblkhd)
         27095 MiB available memory on the node where the printing process lives
------------------
     ethr =  8.04E-03,  avg # of iterations =  7.4

     negative rho (up, down):  5.182E-03 0.000E+00

     total cpu time spent up to now is     4903.3 secs

     total energy              =   -1527.91184867 Ry
     estimated scf accuracy    <      13.01056236 Ry

     iteration #  4     ecut=    40.00 Ry     beta= 0.40
     Davidson diagonalization with overlap

---- Real-time Memory Report at c_bands before calling an iterative solver
          2554 MiB given to the printing process from OS
         -1721 MiB allocation reported by mallinfo(arena+hblkhd)
         27091 MiB available memory on the node where the printing process lives
------------------
     ethr =  6.78E-03,  avg # of iterations =  1.1

     negative rho (up, down):  1.960E-03 0.000E+00

     total cpu time spent up to now is     5822.7 secs

     total energy              =   -1525.75140602 Ry
     estimated scf accuracy    <       9.95371035 Ry

     iteration #  5     ecut=    40.00 Ry     beta= 0.40
     Davidson diagonalization with overlap

---- Real-time Memory Report at c_bands before calling an iterative solver
          2562 MiB given to the printing process from OS
         -1713 MiB allocation reported by mallinfo(arena+hblkhd)
         27094 MiB available memory on the node where the printing process lives
------------------
     ethr =  5.18E-03,  avg # of iterations =  6.5

     negative rho (up, down):  1.133E-04 0.000E+00

     total cpu time spent up to now is     6985.0 secs

     total energy              =   -1526.80538030 Ry
     estimated scf accuracy    <       2.31250142 Ry

     iteration #  6     ecut=    40.00 Ry     beta= 0.40
     Davidson diagonalization with overlap

---- Real-time Memory Report at c_bands before calling an iterative solver
          2570 MiB given to the printing process from OS
         -1705 MiB allocation reported by mallinfo(arena+hblkhd)
         26926 MiB available memory on the node where the printing process lives
------------------
     ethr =  1.20E-03,  avg # of iterations =  4.2

     negative rho (up, down):  3.794E-06 0.000E+00

     total cpu time spent up to now is     8062.5 secs

     total energy              =   -1526.85325601 Ry
     estimated scf accuracy    <       1.29505518 Ry

     iteration #  7     ecut=    40.00 Ry     beta= 0.40
     Davidson diagonalization with overlap

---- Real-time Memory Report at c_bands before calling an iterative solver
          2578 MiB given to the printing process from OS
         -1697 MiB allocation reported by mallinfo(arena+hblkhd)
         26820 MiB available memory on the node where the printing process lives
------------------
     c_bands:  1 eigenvalues not converged
     ethr =  6.75E-04,  avg # of iterations =  8.7

     negative rho (up, down):  8.007E-06 0.000E+00

     total cpu time spent up to now is     9250.3 secs

     total energy              =   -1526.99227673 Ry
     estimated scf accuracy    <       0.41233800 Ry

     iteration #  8     ecut=    40.00 Ry     beta= 0.40
     Davidson diagonalization with overlap

---- Real-time Memory Report at c_bands before calling an iterative solver
          2586 MiB given to the printing process from OS
         -1689 MiB allocation reported by mallinfo(arena+hblkhd)
         26859 MiB available memory on the node where the printing process lives
------------------
