
     Program PWSCF v.7.4 starts on 24Nov2025 at 19:29:45 

     This program is part of the open-source Quantum ESPRESSO suite
     for quantum simulation of materials; please cite
         "P. Giannozzi et al., J. Phys.:Condens. Matter 21 395502 (2009);
         "P. Giannozzi et al., J. Phys.:Condens. Matter 29 465901 (2017);
         "P. Giannozzi et al., J. Chem. Phys. 152 154105 (2020);
          URL http://www.quantum-espresso.org", 
     in publications or presentations arising from this work. More details at
     http://www.quantum-espresso.org/quote

     Parallel version (MPI & OpenMP), running on       1 processor cores
     Number of MPI processes:                 1
     Threads/MPI process:                     1

     MPI processes distributed on     1 nodes
     29250 MiB available memory on the printing compute node when the environment starts

     Waiting for input...
     Reading input from standard input

     Current dimensions of program PWSCF are:
     Max number of different atomic species (ntypx) = 10
     Max number of k-points (npk) =  40000
     Max angular momentum in pseudopotentials (lmaxx) =  4

     Subspace diagonalization in iterative solution of the eigenvalue problem:
     a serial algorithm will be used


     G-vector sticks info
     --------------------
     sticks:   dense  smooth     PW     G-vecs:    dense   smooth      PW
     Sum       22241   11113   3139               742039   262503   39321

     Using Slab Decomposition



     bravais-lattice index     =            0
     lattice parameter (alat)  =      38.6872  a.u.
     unit-cell volume          =    7679.5612 (a.u.)^3
     number of atoms/cell      =           28
     number of atomic types    =            4
     number of electrons       =       192.00
     number of Kohn-Sham states=           96
     kinetic-energy cutoff     =      40.0000  Ry
     charge density cutoff     =     320.0000  Ry
     scf convergence threshold =      1.0E-06
     mixing beta               =       0.4000
     number of iterations used =            8  local-TF  mixing
     Exchange-correlation= PBE
                           (   1   4   3   4   0   0   0)

     celldm(1)=  38.687214  celldm(2)=   0.000000  celldm(3)=   0.000000
     celldm(4)=   0.000000  celldm(5)=   0.000000  celldm(6)=   0.000000

     crystal axes: (cart. coord. in units of alat)
               a(1) = (   1.000000   0.000000   0.000000 )  
               a(2) = (   0.000000   0.583298   0.000000 )  
               a(3) = (   0.000000   0.000000   0.227375 )  

     reciprocal axes: (cart. coord. in units 2 pi/alat)
               b(1) = (  1.000000  0.000000  0.000000 )  
               b(2) = (  0.000000  1.714389  0.000000 )  
               b(3) = (  0.000000  0.000000  4.398014 )  


     PseudoPot. # 1 for Li read from file:
     ./Li.upf
     MD5 check sum: dbcf0ea72988e720c8c712b432d51b0d
     Pseudo is Norm-conserving, Zval =  3.0
     Generated using ONCVPSP code by D. R. Hamann
     Using radial grid of 1944 points,  4 beta functions with: 
                l(1) =   0
                l(2) =   0
                l(3) =   1
                l(4) =   1

     PseudoPot. # 2 for Fe read from file:
     ./Fe.upf
     MD5 check sum: a5f07f5dca5be6cacb81ceb54992e4ae
     Pseudo is Norm-conserving + core correction, Zval = 16.0
     Generated using ONCVPSP code by D. R. Hamann
     Using radial grid of 1426 points,  6 beta functions with: 
                l(1) =   0
                l(2) =   0
                l(3) =   1
                l(4) =   1
                l(5) =   2
                l(6) =   2

     PseudoPot. # 3 for P  read from file:
     ./P.upf
     MD5 check sum: c802fd0635a0ed1615482a1b584dae5b
     Pseudo is Norm-conserving + core correction, Zval =  5.0
     Generated using ONCVPSP code by D. R. Hamann
     Using radial grid of 1298 points,  6 beta functions with: 
                l(1) =   0
                l(2) =   0
                l(3) =   1
                l(4) =   1
                l(5) =   2
                l(6) =   2

     PseudoPot. # 4 for O  read from file:
     ./O.upf
     MD5 check sum: 3e3f909f7470e8921608ab6b1f57bbae
     Pseudo is Norm-conserving + core correction, Zval =  6.0
     Generated using ONCVPSP code by D. R. Hamann
     Using radial grid of  936 points,  5 beta functions with: 
                l(1) =   0
                l(2) =   0
                l(3) =   1
                l(4) =   1
                l(5) =   2

     atomic species   valence    mass     pseudopotential
     Li                3.00     6.94000     Li( 1.00)
     Fe               16.00    55.84500     Fe( 1.00)
     P                 5.00    30.97400     P ( 1.00)
     O                 6.00    15.99900     O ( 1.00)

     No symmetry found


                                    s                        frac. trans.

      isym =  1     identity                                     

 cryst.   s( 1) = (     1          0          0      )
                  (     0          1          0      )
                  (     0          0          1      )

 cart.    s( 1) = (  1.0000000  0.0000000  0.0000000 )
                  (  0.0000000  1.0000000  0.0000000 )
                  (  0.0000000  0.0000000  1.0000000 )


   Cartesian axes

     site n.     atom                  positions (alat units)
         1        Li     tau(   1) = (   0.0000000   0.0000000   0.0000000  )
         2        Li     tau(   2) = (   0.1136877   0.1458247   0.2500001  )
         3        Li     tau(   3) = (   0.1136877   0.0000000   0.2500001  )
         4        Li     tau(   4) = (   0.0000000   0.1458247   0.0000000  )
         5        Fe     tau(   5) = (   0.1204783   0.0729123   0.3905758  )
         6        Fe     tau(   6) = (   0.0067906   0.2187370   0.3594245  )
         7        Fe     tau(   7) = (   0.2205844   0.0729123   0.1405757  )
         8        Fe     tau(   8) = (   0.1068971   0.2187370   0.1094244  )
         9        P      tau(   9) = (   0.0951843   0.0729123   0.0469330  )
        10        P      tau(  10) = (   0.2088720   0.2187370   0.2030666  )
        11        P      tau(  11) = (   0.0185035   0.0729123   0.2969331  )
        12        P      tau(  12) = (   0.1321907   0.2187370   0.4530667  )
        13        O      tau(  13) = (   0.1693461   0.0729123   0.0471152  )
        14        O      tau(  14) = (   0.1622859   0.1591114   0.4170773  )
        15        O      tau(  15) = (   0.1622859   0.2783622   0.4170773  )
        16        O      tau(  16) = (   0.0580294   0.2187370   0.4528845  )
        17        O      tau(  17) = (   0.1614057   0.2187370   0.0221542  )
        18        O      tau(  18) = (   0.0556584   0.2187370   0.2028844  )
        19        O      tau(  19) = (   0.0650896   0.0132872   0.0829229  )
        20        O      tau(  20) = (   0.0485981   0.1325375   0.3329225  )
        21        O      tau(  21) = (   0.1787773   0.1591114   0.1670772  )
        22        O      tau(  22) = (   0.1787773   0.2783622   0.1670772  )
        23        O      tau(  23) = (   0.0659698   0.0729123   0.4778455  )
        24        O      tau(  24) = (   0.0477179   0.0729123   0.2278459  )
        25        O      tau(  25) = (   0.1796576   0.2187370   0.2721543  )
        26        O      tau(  26) = (   0.1717171   0.0729123   0.2971153  )
        27        O      tau(  27) = (   0.0485981   0.0132872   0.3329225  )
        28        O      tau(  28) = (   0.0650896   0.1325375   0.0829229  )

   Crystallographic axes

     site n.     atom                  positions (cryst. coord.)
         1        Li     tau(   1) = (  0.0000000  0.0000000  0.0000000  )
         2        Li     tau(   2) = (  0.1136877  0.2500002  1.0995040  )
         3        Li     tau(   3) = (  0.1136877  0.0000000  1.0995040  )
         4        Li     tau(   4) = (  0.0000000  0.2500002  0.0000000  )
         5        Fe     tau(   5) = (  0.1204783  0.1250001  1.7177577  )
         6        Fe     tau(   6) = (  0.0067906  0.3750003  1.5807542  )
         7        Fe     tau(   7) = (  0.2205844  0.1250001  0.6182537  )
         8        Fe     tau(   8) = (  0.1068971  0.3750003  0.4812502  )
         9        P      tau(   9) = (  0.0951843  0.1250001  0.2064118  )
        10        P      tau(  10) = (  0.2088720  0.3750003  0.8930900  )
        11        P      tau(  11) = (  0.0185035  0.1250001  1.3059158  )
        12        P      tau(  12) = (  0.1321907  0.3750003  1.9925940  )
        13        O      tau(  13) = (  0.1693461  0.1250001  0.2072131  )
        14        O      tau(  14) = (  0.1622859  0.2727787  1.8343119  )
        15        O      tau(  15) = (  0.1622859  0.4772210  1.8343119  )
        16        O      tau(  16) = (  0.0580294  0.3750003  1.9917927  )
        17        O      tau(  17) = (  0.1614057  0.3750003  0.0974346  )
        18        O      tau(  18) = (  0.0556584  0.3750003  0.8922887  )
        19        O      tau(  19) = (  0.0650896  0.0227794  0.3646961  )
        20        O      tau(  20) = (  0.0485981  0.2272208  1.4641979  )
        21        O      tau(  21) = (  0.1787773  0.2727787  0.7348079  )
        22        O      tau(  22) = (  0.1787773  0.4772210  0.7348079  )
        23        O      tau(  23) = (  0.0659698  0.1250001  2.1015712  )
        24        O      tau(  24) = (  0.0477179  0.1250001  1.0020694  )
        25        O      tau(  25) = (  0.1796576  0.3750003  1.1969386  )
        26        O      tau(  26) = (  0.1717171  0.1250001  1.3067171  )
        27        O      tau(  27) = (  0.0485981  0.0227794  1.4641979  )
        28        O      tau(  28) = (  0.0650896  0.2272208  0.3646961  )

     number of k points=     8
                       cart. coord. in units 2pi/alat
        k(    1) = (   0.0000000   0.0000000   0.0000000), wk =   0.2500000
        k(    2) = (   0.0000000   0.0000000  -2.1990071), wk =   0.2500000
        k(    3) = (   0.0000000  -0.8571944   0.0000000), wk =   0.2500000
        k(    4) = (   0.0000000  -0.8571944  -2.1990071), wk =   0.2500000
        k(    5) = (  -0.5000000   0.0000000   0.0000000), wk =   0.2500000
        k(    6) = (  -0.5000000   0.0000000  -2.1990071), wk =   0.2500000
        k(    7) = (  -0.5000000  -0.8571944   0.0000000), wk =   0.2500000
        k(    8) = (  -0.5000000  -0.8571944  -2.1990071), wk =   0.2500000

                       cryst. coord.
        k(    1) = (   0.0000000   0.0000000   0.0000000), wk =   0.2500000
        k(    2) = (   0.0000000   0.0000000  -0.5000000), wk =   0.2500000
        k(    3) = (   0.0000000  -0.5000000   0.0000000), wk =   0.2500000
        k(    4) = (   0.0000000  -0.5000000  -0.5000000), wk =   0.2500000
        k(    5) = (  -0.5000000   0.0000000   0.0000000), wk =   0.2500000
        k(    6) = (  -0.5000000   0.0000000  -0.5000000), wk =   0.2500000
        k(    7) = (  -0.5000000  -0.5000000   0.0000000), wk =   0.2500000
        k(    8) = (  -0.5000000  -0.5000000  -0.5000000), wk =   0.2500000

     Dense  grid:   742039 G-vectors     FFT dimensions: ( 225, 135,  54)

     Smooth grid:   262503 G-vectors     FFT dimensions: ( 160,  96,  36)

     Dynamical RAM for                 wfc:      48.06 MB

     Dynamical RAM for     wfc (w. buffer):     432.53 MB

     Dynamical RAM for           str. fact:      45.29 MB

     Dynamical RAM for           local pot:       0.00 MB

     Dynamical RAM for          nlocal pot:     192.23 MB

     Dynamical RAM for                qrad:       5.74 MB

     Dynamical RAM for          rho,v,vnew:      71.51 MB

     Dynamical RAM for               rhoin:      23.84 MB

     Dynamical RAM for            rho*nmix:     181.16 MB

     Dynamical RAM for           G-vectors:      44.46 MB

     Dynamical RAM for          h,s,v(r/c):       1.69 MB

     Dynamical RAM for          <psi|beta>:       0.56 MB

     Dynamical RAM for                 psi:      96.12 MB

     Dynamical RAM for                hpsi:      96.12 MB

     Dynamical RAM for      wfcinit/wfcrot:      96.33 MB

     Estimated static dynamical RAM per process >     934.79 MB

     Estimated max dynamical RAM per process >       1.39 GB

     Initial potential from superposition of free atoms

     starting charge     191.9796, renormalised to     192.0000

     negative rho (up, down):  1.308E-04 0.000E+00
     Starting wfcs are  128 randomized atomic wfcs

     total cpu time spent up to now is      125.2 secs

     per-process dynamical memory:   935.2 Mb

     Self-consistent Calculation

     iteration #  1     ecut=    40.00 Ry     beta= 0.40
     Davidson diagonalization with overlap

---- Real-time Memory Report at c_bands before calling an iterative solver
           988 MiB given to the printing process from OS
           913 MiB allocation reported by mallinfo(arena+hblkhd)
         28405 MiB available memory on the node where the printing process lives
------------------
     ethr =  1.00E-02,  avg # of iterations =  5.5

     negative rho (up, down):  4.532E-04 0.000E+00

     total cpu time spent up to now is      556.3 secs

     total energy              =   -1529.89066416 Ry
     estimated scf accuracy    <      29.33189862 Ry

     iteration #  2     ecut=    40.00 Ry     beta= 0.40
     Davidson diagonalization with overlap

---- Real-time Memory Report at c_bands before calling an iterative solver
          1137 MiB given to the printing process from OS
          1004 MiB allocation reported by mallinfo(arena+hblkhd)
         28422 MiB available memory on the node where the printing process lives
------------------
     ethr =  1.00E-02,  avg # of iterations =  1.0

     negative rho (up, down):  1.705E-02 0.000E+00

     total cpu time spent up to now is      767.1 secs

     total energy              =   -1522.82863993 Ry
     estimated scf accuracy    <      15.60558570 Ry

     iteration #  3     ecut=    40.00 Ry     beta= 0.40
     Davidson diagonalization with overlap

---- Real-time Memory Report at c_bands before calling an iterative solver
          1192 MiB given to the printing process from OS
          1012 MiB allocation reported by mallinfo(arena+hblkhd)
         28418 MiB available memory on the node where the printing process lives
------------------
     ethr =  8.13E-03,  avg # of iterations =  7.4

     negative rho (up, down):  5.409E-03 0.000E+00

     total cpu time spent up to now is     1131.1 secs

     total energy              =   -1528.01316939 Ry
     estimated scf accuracy    <      13.91586912 Ry

     iteration #  4     ecut=    40.00 Ry     beta= 0.40
     Davidson diagonalization with overlap

---- Real-time Memory Report at c_bands before calling an iterative solver
          1200 MiB given to the printing process from OS
          1020 MiB allocation reported by mallinfo(arena+hblkhd)
         28399 MiB available memory on the node where the printing process lives
------------------
     ethr =  7.25E-03,  avg # of iterations =  1.0

     negative rho (up, down):  2.183E-03 0.000E+00

     total cpu time spent up to now is     1342.5 secs

     total energy              =   -1525.77018484 Ry
     estimated scf accuracy    <      10.71530725 Ry

     iteration #  5     ecut=    40.00 Ry     beta= 0.40
     Davidson diagonalization with overlap

---- Real-time Memory Report at c_bands before calling an iterative solver
          1208 MiB given to the printing process from OS
          1028 MiB allocation reported by mallinfo(arena+hblkhd)
         28410 MiB available memory on the node where the printing process lives
------------------
     ethr =  5.58E-03,  avg # of iterations =  4.8

     negative rho (up, down):  1.643E-04 0.000E+00

     total cpu time spent up to now is     1594.1 secs

     total energy              =   -1526.75339028 Ry
     estimated scf accuracy    <       0.45482783 Ry

     iteration #  6     ecut=    40.00 Ry     beta= 0.40
     Davidson diagonalization with overlap

---- Real-time Memory Report at c_bands before calling an iterative solver
          1216 MiB given to the printing process from OS
          1036 MiB allocation reported by mallinfo(arena+hblkhd)
         28332 MiB available memory on the node where the printing process lives
------------------
     c_bands:  2 eigenvalues not converged
     c_bands:  1 eigenvalues not converged
     ethr =  2.37E-04,  avg # of iterations = 13.1

     negative rho (up, down):  2.990E-05 0.000E+00

     total cpu time spent up to now is     2011.2 secs

     total energy              =   -1527.08982187 Ry
     estimated scf accuracy    <       3.99589698 Ry

     iteration #  7     ecut=    40.00 Ry     beta= 0.40
     Davidson diagonalization with overlap

---- Real-time Memory Report at c_bands before calling an iterative solver
          1224 MiB given to the printing process from OS
          1044 MiB allocation reported by mallinfo(arena+hblkhd)
         28209 MiB available memory on the node where the printing process lives
------------------
     ethr =  2.37E-04,  avg # of iterations =  2.1

     total cpu time spent up to now is     2237.4 secs

     total energy              =   -1526.48878493 Ry
     estimated scf accuracy    <       3.18940303 Ry

     iteration #  8     ecut=    40.00 Ry     beta= 0.40
     Davidson diagonalization with overlap

---- Real-time Memory Report at c_bands before calling an iterative solver
          1232 MiB given to the printing process from OS
          1052 MiB allocation reported by mallinfo(arena+hblkhd)
         28041 MiB available memory on the node where the printing process lives
------------------
     c_bands:  1 eigenvalues not converged
     c_bands:  1 eigenvalues not converged
     c_bands:  1 eigenvalues not converged
     ethr =  2.37E-04,  avg # of iterations = 15.8

     total cpu time spent up to now is     2691.8 secs

     total energy              =   -1527.18691181 Ry
     estimated scf accuracy    <       5.10773399 Ry

     iteration #  9     ecut=    40.00 Ry     beta= 0.40
     Davidson diagonalization with overlap

---- Real-time Memory Report at c_bands before calling an iterative solver
          1240 MiB given to the printing process from OS
          1060 MiB allocation reported by mallinfo(arena+hblkhd)
         28044 MiB available memory on the node where the printing process lives
------------------
     ethr =  2.37E-04,  avg # of iterations =  2.0

     total cpu time spent up to now is     2914.6 secs

     total energy              =   -1526.76294970 Ry
     estimated scf accuracy    <       4.11759171 Ry

     iteration # 10     ecut=    40.00 Ry     beta= 0.40
     Davidson diagonalization with overlap

---- Real-time Memory Report at c_bands before calling an iterative solver
          1248 MiB given to the printing process from OS
          1068 MiB allocation reported by mallinfo(arena+hblkhd)
         28172 MiB available memory on the node where the printing process lives
------------------
     ethr =  2.37E-04,  avg # of iterations = 13.2

     total cpu time spent up to now is     3267.0 secs

     total energy              =   -1527.02278098 Ry
     estimated scf accuracy    <       0.35736049 Ry

     iteration # 11     ecut=    40.00 Ry     beta= 0.40
     Davidson diagonalization with overlap

---- Real-time Memory Report at c_bands before calling an iterative solver
          1256 MiB given to the printing process from OS
          1068 MiB allocation reported by mallinfo(arena+hblkhd)
         28034 MiB available memory on the node where the printing process lives
------------------
     ethr =  1.86E-04,  avg # of iterations =  1.0

     total cpu time spent up to now is     3475.4 secs

     total energy              =   -1527.00011705 Ry
     estimated scf accuracy    <       0.31976206 Ry

     iteration # 12     ecut=    40.00 Ry     beta= 0.40
     Davidson diagonalization with overlap

---- Real-time Memory Report at c_bands before calling an iterative solver
          1256 MiB given to the printing process from OS
          1068 MiB allocation reported by mallinfo(arena+hblkhd)
         28016 MiB available memory on the node where the printing process lives
------------------
     ethr =  1.67E-04,  avg # of iterations = 11.8

     total cpu time spent up to now is     3746.0 secs

     total energy              =   -1526.98969203 Ry
     estimated scf accuracy    <       0.56566549 Ry

     iteration # 13     ecut=    40.00 Ry     beta= 0.40
     Davidson diagonalization with overlap

---- Real-time Memory Report at c_bands before calling an iterative solver
          1256 MiB given to the printing process from OS
          1068 MiB allocation reported by mallinfo(arena+hblkhd)
         28184 MiB available memory on the node where the printing process lives
------------------
     ethr =  1.67E-04,  avg # of iterations =  3.2

     total cpu time spent up to now is     3976.3 secs

     total energy              =   -1526.98707438 Ry
     estimated scf accuracy    <       0.30243879 Ry

     iteration # 14     ecut=    40.00 Ry     beta= 0.40
     Davidson diagonalization with overlap

---- Real-time Memory Report at c_bands before calling an iterative solver
          1256 MiB given to the printing process from OS
          1068 MiB allocation reported by mallinfo(arena+hblkhd)
         28178 MiB available memory on the node where the printing process lives
------------------
     ethr =  1.58E-04,  avg # of iterations =  9.2

     total cpu time spent up to now is     4215.6 secs

     total energy              =   -1527.01194690 Ry
     estimated scf accuracy    <       0.10356551 Ry

     iteration # 15     ecut=    40.00 Ry     beta= 0.40
     Davidson diagonalization with overlap

---- Real-time Memory Report at c_bands before calling an iterative solver
          1256 MiB given to the printing process from OS
          1068 MiB allocation reported by mallinfo(arena+hblkhd)
         28190 MiB available memory on the node where the printing process lives
------------------
     ethr =  5.39E-05,  avg # of iterations = 10.8

     total cpu time spent up to now is     4504.5 secs

     total energy              =   -1527.01805323 Ry
     estimated scf accuracy    <       0.61347251 Ry

     iteration # 16     ecut=    40.00 Ry     beta= 0.40
     Davidson diagonalization with overlap

---- Real-time Memory Report at c_bands before calling an iterative solver
          1256 MiB given to the printing process from OS
          1068 MiB allocation reported by mallinfo(arena+hblkhd)
         28064 MiB available memory on the node where the printing process lives
------------------
     ethr =  5.39E-05,  avg # of iterations =  1.1

     total cpu time spent up to now is     4714.1 secs

     total energy              =   -1526.97684808 Ry
     estimated scf accuracy    <       0.55828464 Ry

     iteration # 17     ecut=    40.00 Ry     beta= 0.40
     Davidson diagonalization with overlap

---- Real-time Memory Report at c_bands before calling an iterative solver
          1256 MiB given to the printing process from OS
          1068 MiB allocation reported by mallinfo(arena+hblkhd)
         27995 MiB available memory on the node where the printing process lives
------------------
     ethr =  5.39E-05,  avg # of iterations = 10.2

     total cpu time spent up to now is     5041.1 secs

     total energy              =   -1527.01436509 Ry
     estimated scf accuracy    <       0.31602181 Ry

     iteration # 18     ecut=    40.00 Ry     beta= 0.40
     Davidson diagonalization with overlap

---- Real-time Memory Report at c_bands before calling an iterative solver
          1256 MiB given to the printing process from OS
          1068 MiB allocation reported by mallinfo(arena+hblkhd)
         28136 MiB available memory on the node where the printing process lives
------------------
     ethr =  5.39E-05,  avg # of iterations =  1.0

     total cpu time spent up to now is     5249.8 secs

     total energy              =   -1527.00601105 Ry
     estimated scf accuracy    <       0.30364705 Ry

     iteration # 19     ecut=    40.00 Ry     beta= 0.40
     Davidson diagonalization with overlap

---- Real-time Memory Report at c_bands before calling an iterative solver
          1256 MiB given to the printing process from OS
          1068 MiB allocation reported by mallinfo(arena+hblkhd)
         28153 MiB available memory on the node where the printing process lives
------------------
     ethr =  5.39E-05,  avg # of iterations = 13.9

     total cpu time spent up to now is     5539.0 secs

     total energy              =   -1527.01964291 Ry
     estimated scf accuracy    <       0.50932746 Ry

     iteration # 20     ecut=    40.00 Ry     beta= 0.40
     Davidson diagonalization with overlap

---- Real-time Memory Report at c_bands before calling an iterative solver
          1256 MiB given to the printing process from OS
          1068 MiB allocation reported by mallinfo(arena+hblkhd)
         27966 MiB available memory on the node where the printing process lives
------------------
     ethr =  5.39E-05,  avg # of iterations =  1.0

     total cpu time spent up to now is     5747.3 secs

     total energy              =   -1527.03085270 Ry
     estimated scf accuracy    <       0.48114047 Ry

     iteration # 21     ecut=    40.00 Ry     beta= 0.40
     Davidson diagonalization with overlap

---- Real-time Memory Report at c_bands before calling an iterative solver
          1256 MiB given to the printing process from OS
          1068 MiB allocation reported by mallinfo(arena+hblkhd)
         27971 MiB available memory on the node where the printing process lives
------------------
     ethr =  5.39E-05,  avg # of iterations =  1.0

     total cpu time spent up to now is     5955.7 secs

     total energy              =   -1527.05660919 Ry
     estimated scf accuracy    <       0.54352115 Ry

     iteration # 22     ecut=    40.00 Ry     beta= 0.40
     Davidson diagonalization with overlap

---- Real-time Memory Report at c_bands before calling an iterative solver
          1256 MiB given to the printing process from OS
          1068 MiB allocation reported by mallinfo(arena+hblkhd)
         27965 MiB available memory on the node where the printing process lives
------------------
     ethr =  5.39E-05,  avg # of iterations =  8.1

     total cpu time spent up to now is     6247.3 secs

     total energy              =   -1527.05607508 Ry
     estimated scf accuracy    <       1.58978583 Ry

     iteration # 23     ecut=    40.00 Ry     beta= 0.40
     Davidson diagonalization with overlap

---- Real-time Memory Report at c_bands before calling an iterative solver
          1256 MiB given to the printing process from OS
          1068 MiB allocation reported by mallinfo(arena+hblkhd)
         27978 MiB available memory on the node where the printing process lives
------------------
     ethr =  5.39E-05,  avg # of iterations =  1.0

     total cpu time spent up to now is     6455.7 secs

     total energy              =   -1527.03805042 Ry
     estimated scf accuracy    <       1.48898273 Ry

     iteration # 24     ecut=    40.00 Ry     beta= 0.40
     Davidson diagonalization with overlap

---- Real-time Memory Report at c_bands before calling an iterative solver
          1256 MiB given to the printing process from OS
          1068 MiB allocation reported by mallinfo(arena+hblkhd)
         27960 MiB available memory on the node where the printing process lives
------------------
     ethr =  5.39E-05,  avg # of iterations =  1.0

     total cpu time spent up to now is     6664.5 secs

     total energy              =   -1527.00346607 Ry
     estimated scf accuracy    <       1.34565584 Ry

     iteration # 25     ecut=    40.00 Ry     beta= 0.40
     Davidson diagonalization with overlap

---- Real-time Memory Report at c_bands before calling an iterative solver
          1256 MiB given to the printing process from OS
          1068 MiB allocation reported by mallinfo(arena+hblkhd)
         28044 MiB available memory on the node where the printing process lives
------------------
     ethr =  5.39E-05,  avg # of iterations = 10.9

     total cpu time spent up to now is     6930.6 secs

     total energy              =   -1526.95647732 Ry
     estimated scf accuracy    <       0.56719044 Ry

     iteration # 26     ecut=    40.00 Ry     beta= 0.40
     Davidson diagonalization with overlap

---- Real-time Memory Report at c_bands before calling an iterative solver
          1256 MiB given to the printing process from OS
          1068 MiB allocation reported by mallinfo(arena+hblkhd)
         28042 MiB available memory on the node where the printing process lives
------------------
     c_bands:  1 eigenvalues not converged
     c_bands:  1 eigenvalues not converged
     c_bands:  1 eigenvalues not converged
     c_bands:  1 eigenvalues not converged
     ethr =  5.39E-05,  avg # of iterations = 19.9

     total cpu time spent up to now is     7356.7 secs

     total energy              =   -1526.92722296 Ry
     estimated scf accuracy    <       1.94255218 Ry

     iteration # 27     ecut=    40.00 Ry     beta= 0.40
     Davidson diagonalization with overlap

---- Real-time Memory Report at c_bands before calling an iterative solver
          1256 MiB given to the printing process from OS
          1068 MiB allocation reported by mallinfo(arena+hblkhd)
         28091 MiB available memory on the node where the printing process lives
------------------
     c_bands:  3 eigenvalues not converged
     c_bands:  1 eigenvalues not converged
     c_bands:  4 eigenvalues not converged
     c_bands:  1 eigenvalues not converged
     c_bands:  3 eigenvalues not converged
     c_bands:  1 eigenvalues not converged
     c_bands:  4 eigenvalues not converged
     c_bands:  1 eigenvalues not converged
     ethr =  5.39E-05,  avg # of iterations = 20.0

     total cpu time spent up to now is     7882.0 secs

     total energy              =   -1527.21709728 Ry
     estimated scf accuracy    <       6.00624950 Ry

     iteration # 28     ecut=    40.00 Ry     beta= 0.40
     Davidson diagonalization with overlap

---- Real-time Memory Report at c_bands before calling an iterative solver
          1256 MiB given to the printing process from OS
          1068 MiB allocation reported by mallinfo(arena+hblkhd)
         27931 MiB available memory on the node where the printing process lives
------------------
     ethr =  5.39E-05,  avg # of iterations =  7.0

     total cpu time spent up to now is     8113.8 secs

     total energy              =   -1527.12164502 Ry
     estimated scf accuracy    <       5.96839938 Ry

     iteration # 29     ecut=    40.00 Ry     beta= 0.40
     Davidson diagonalization with overlap

---- Real-time Memory Report at c_bands before calling an iterative solver
          1256 MiB given to the printing process from OS
          1068 MiB allocation reported by mallinfo(arena+hblkhd)
         28188 MiB available memory on the node where the printing process lives
------------------
     ethr =  5.39E-05,  avg # of iterations =  8.0

     total cpu time spent up to now is     8369.3 secs

     total energy              =   -1527.10047726 Ry
     estimated scf accuracy    <       4.59838707 Ry

     iteration # 30     ecut=    40.00 Ry     beta= 0.40
     Davidson diagonalization with overlap

---- Real-time Memory Report at c_bands before calling an iterative solver
          1256 MiB given to the printing process from OS
          1068 MiB allocation reported by mallinfo(arena+hblkhd)
         28242 MiB available memory on the node where the printing process lives
------------------
     ethr =  5.39E-05,  avg # of iterations =  2.0

     total cpu time spent up to now is     8590.4 secs

     total energy              =   -1527.04322810 Ry
     estimated scf accuracy    <       4.31722708 Ry

     iteration # 31     ecut=    40.00 Ry     beta= 0.40
     Davidson diagonalization with overlap

---- Real-time Memory Report at c_bands before calling an iterative solver
          1256 MiB given to the printing process from OS
          1068 MiB allocation reported by mallinfo(arena+hblkhd)
         28228 MiB available memory on the node where the printing process lives
------------------
     ethr =  5.39E-05,  avg # of iterations = 12.1

     total cpu time spent up to now is     8885.1 secs

     total energy              =   -1527.00617690 Ry
     estimated scf accuracy    <       1.94724872 Ry

     iteration # 32     ecut=    40.00 Ry     beta= 0.40
     Davidson diagonalization with overlap

---- Real-time Memory Report at c_bands before calling an iterative solver
          1256 MiB given to the printing process from OS
          1068 MiB allocation reported by mallinfo(arena+hblkhd)
         27668 MiB available memory on the node where the printing process lives
------------------
     c_bands:  2 eigenvalues not converged
     ethr =  5.39E-05,  avg # of iterations =  8.1

     total cpu time spent up to now is     9151.6 secs

     total energy              =   -1526.94955167 Ry
     estimated scf accuracy    <       0.94954151 Ry

     iteration # 33     ecut=    40.00 Ry     beta= 0.40
     Davidson diagonalization with overlap

---- Real-time Memory Report at c_bands before calling an iterative solver
          1256 MiB given to the printing process from OS
          1068 MiB allocation reported by mallinfo(arena+hblkhd)
         27511 MiB available memory on the node where the printing process lives
------------------
     c_bands:  1 eigenvalues not converged
     ethr =  5.39E-05,  avg # of iterations = 13.8

     total cpu time spent up to now is     9528.9 secs

     total energy              =   -1527.02047268 Ry
     estimated scf accuracy    <       0.31989255 Ry

     iteration # 34     ecut=    40.00 Ry     beta= 0.40
     Davidson diagonalization with overlap

---- Real-time Memory Report at c_bands before calling an iterative solver
          1256 MiB given to the printing process from OS
          1068 MiB allocation reported by mallinfo(arena+hblkhd)
         27409 MiB available memory on the node where the printing process lives
------------------
     ethr =  5.39E-05,  avg # of iterations =  1.5

     total cpu time spent up to now is     9742.9 secs

     total energy              =   -1527.03084793 Ry
     estimated scf accuracy    <       0.35165289 Ry

     iteration # 35     ecut=    40.00 Ry     beta= 0.40
     Davidson diagonalization with overlap

---- Real-time Memory Report at c_bands before calling an iterative solver
          1256 MiB given to the printing process from OS
          1068 MiB allocation reported by mallinfo(arena+hblkhd)
         27697 MiB available memory on the node where the printing process lives
------------------
     ethr =  5.39E-05,  avg # of iterations =  7.6

     total cpu time spent up to now is     9978.4 secs

     total energy              =   -1527.00301425 Ry
     estimated scf accuracy    <       0.59291346 Ry

     iteration # 36     ecut=    40.00 Ry     beta= 0.40
     Davidson diagonalization with overlap

---- Real-time Memory Report at c_bands before calling an iterative solver
          1256 MiB given to the printing process from OS
          1068 MiB allocation reported by mallinfo(arena+hblkhd)
         27568 MiB available memory on the node where the printing process lives
------------------
     ethr =  5.39E-05,  avg # of iterations =  2.6

     negative rho (up, down):  2.834E-05 0.000E+00

     total cpu time spent up to now is    10208.2 secs

     total energy              =   -1526.96826555 Ry
     estimated scf accuracy    <       0.42671124 Ry

     iteration # 37     ecut=    40.00 Ry     beta= 0.40
     Davidson diagonalization with overlap

---- Real-time Memory Report at c_bands before calling an iterative solver
          1256 MiB given to the printing process from OS
          1068 MiB allocation reported by mallinfo(arena+hblkhd)
         27402 MiB available memory on the node where the printing process lives
------------------
     c_bands:  1 eigenvalues not converged
     ethr =  5.39E-05,  avg # of iterations = 11.8

     total cpu time spent up to now is    10548.7 secs

     total energy              =   -1527.03926512 Ry
     estimated scf accuracy    <       0.60226691 Ry

     iteration # 38     ecut=    40.00 Ry     beta= 0.40
     Davidson diagonalization with overlap

---- Real-time Memory Report at c_bands before calling an iterative solver
          1256 MiB given to the printing process from OS
          1068 MiB allocation reported by mallinfo(arena+hblkhd)
         27407 MiB available memory on the node where the printing process lives
------------------
     ethr =  5.39E-05,  avg # of iterations =  1.1

     negative rho (up, down):  8.418E-07 0.000E+00

     total cpu time spent up to now is    10762.2 secs

     total energy              =   -1527.05538538 Ry
     estimated scf accuracy    <       0.62212699 Ry

     iteration # 39     ecut=    40.00 Ry     beta= 0.40
     Davidson diagonalization with overlap

---- Real-time Memory Report at c_bands before calling an iterative solver
          1256 MiB given to the printing process from OS
          1068 MiB allocation reported by mallinfo(arena+hblkhd)
         27601 MiB available memory on the node where the printing process lives
------------------
     ethr =  5.39E-05,  avg # of iterations =  1.5

     total cpu time spent up to now is    10977.2 secs

     total energy              =   -1527.09618819 Ry
     estimated scf accuracy    <       0.75685249 Ry

     iteration # 40     ecut=    40.00 Ry     beta= 0.40
     Davidson diagonalization with overlap

---- Real-time Memory Report at c_bands before calling an iterative solver
          1256 MiB given to the printing process from OS
          1068 MiB allocation reported by mallinfo(arena+hblkhd)
         27602 MiB available memory on the node where the printing process lives
------------------
     c_bands:  2 eigenvalues not converged
     c_bands:  2 eigenvalues not converged
     ethr =  5.39E-05,  avg # of iterations = 12.9

     total cpu time spent up to now is    11328.2 secs

     total energy              =   -1526.97109463 Ry
     estimated scf accuracy    <       4.04551184 Ry

     iteration # 41     ecut=    40.00 Ry     beta= 0.40
     Davidson diagonalization with overlap

---- Real-time Memory Report at c_bands before calling an iterative solver
          1256 MiB given to the printing process from OS
          1068 MiB allocation reported by mallinfo(arena+hblkhd)
         27509 MiB available memory on the node where the printing process lives
------------------
     c_bands:  1 eigenvalues not converged
     c_bands:  1 eigenvalues not converged
     ethr =  5.39E-05,  avg # of iterations = 12.0

     total cpu time spent up to now is    11684.5 secs

     total energy              =   -1527.04113006 Ry
     estimated scf accuracy    <       0.80168483 Ry

     iteration # 42     ecut=    40.00 Ry     beta= 0.40
     Davidson diagonalization with overlap

---- Real-time Memory Report at c_bands before calling an iterative solver
          1256 MiB given to the printing process from OS
          1068 MiB allocation reported by mallinfo(arena+hblkhd)
         27500 MiB available memory on the node where the printing process lives
------------------
     ethr =  5.39E-05,  avg # of iterations =  2.5

     total cpu time spent up to now is    11899.1 secs

     total energy              =   -1527.04305005 Ry
     estimated scf accuracy    <       0.94375014 Ry

     iteration # 43     ecut=    40.00 Ry     beta= 0.40
     Davidson diagonalization with overlap

---- Real-time Memory Report at c_bands before calling an iterative solver
          1256 MiB given to the printing process from OS
          1068 MiB allocation reported by mallinfo(arena+hblkhd)
         27655 MiB available memory on the node where the printing process lives
------------------
     ethr =  5.39E-05,  avg # of iterations =  1.0

     total cpu time spent up to now is    12107.5 secs

     total energy              =   -1527.03492134 Ry
     estimated scf accuracy    <       0.97199771 Ry

     iteration # 44     ecut=    40.00 Ry     beta= 0.40
     Davidson diagonalization with overlap

---- Real-time Memory Report at c_bands before calling an iterative solver
          1256 MiB given to the printing process from OS
          1068 MiB allocation reported by mallinfo(arena+hblkhd)
         27653 MiB available memory on the node where the printing process lives
------------------
     ethr =  5.39E-05,  avg # of iterations =  1.0

     total cpu time spent up to now is    12316.5 secs

     total energy              =   -1527.01032569 Ry
     estimated scf accuracy    <       0.97649759 Ry

     iteration # 45     ecut=    40.00 Ry     beta= 0.40
     Davidson diagonalization with overlap

---- Real-time Memory Report at c_bands before calling an iterative solver
          1256 MiB given to the printing process from OS
          1068 MiB allocation reported by mallinfo(arena+hblkhd)
         27578 MiB available memory on the node where the printing process lives
------------------
     ethr =  5.39E-05,  avg # of iterations =  2.0

     total cpu time spent up to now is    12538.8 secs

     total energy              =   -1526.88017719 Ry
     estimated scf accuracy    <       0.79612031 Ry

     iteration # 46     ecut=    40.00 Ry     beta= 0.40
     Davidson diagonalization with overlap

---- Real-time Memory Report at c_bands before calling an iterative solver
          1256 MiB given to the printing process from OS
          1068 MiB allocation reported by mallinfo(arena+hblkhd)
         27572 MiB available memory on the node where the printing process lives
------------------
     c_bands:  1 eigenvalues not converged
     c_bands:  1 eigenvalues not converged
     ethr =  5.39E-05,  avg # of iterations = 18.5

     total cpu time spent up to now is    13028.1 secs

     total energy              =   -1527.07637016 Ry
     estimated scf accuracy    <       3.79443378 Ry

     iteration # 47     ecut=    40.00 Ry     beta= 0.40
     Davidson diagonalization with overlap

---- Real-time Memory Report at c_bands before calling an iterative solver
          1256 MiB given to the printing process from OS
          1068 MiB allocation reported by mallinfo(arena+hblkhd)
         27337 MiB available memory on the node where the printing process lives
------------------
     ethr =  5.39E-05,  avg # of iterations =  7.6

     total cpu time spent up to now is    13274.2 secs

     total energy              =   -1527.01930429 Ry
     estimated scf accuracy    <       3.03694085 Ry

     iteration # 48     ecut=    40.00 Ry     beta= 0.40
     Davidson diagonalization with overlap

---- Real-time Memory Report at c_bands before calling an iterative solver
          1256 MiB given to the printing process from OS
          1068 MiB allocation reported by mallinfo(arena+hblkhd)
         27182 MiB available memory on the node where the printing process lives
------------------
     ethr =  5.39E-05,  avg # of iterations = 12.8

     total cpu time spent up to now is    13584.0 secs

     total energy              =   -1527.03426774 Ry
     estimated scf accuracy    <       1.17078888 Ry

     iteration # 49     ecut=    40.00 Ry     beta= 0.40
     Davidson diagonalization with overlap

---- Real-time Memory Report at c_bands before calling an iterative solver
          1256 MiB given to the printing process from OS
          1068 MiB allocation reported by mallinfo(arena+hblkhd)
         27394 MiB available memory on the node where the printing process lives
------------------
     ethr =  5.39E-05,  avg # of iterations =  1.0

     total cpu time spent up to now is    13792.4 secs

     total energy              =   -1527.05368936 Ry
     estimated scf accuracy    <       1.08809056 Ry

     iteration # 50     ecut=    40.00 Ry     beta= 0.40
     Davidson diagonalization with overlap

---- Real-time Memory Report at c_bands before calling an iterative solver
          1256 MiB given to the printing process from OS
          1068 MiB allocation reported by mallinfo(arena+hblkhd)
         27412 MiB available memory on the node where the printing process lives
------------------
     ethr =  5.39E-05,  avg # of iterations =  1.0

     total cpu time spent up to now is    14001.2 secs

     total energy              =   -1527.07780584 Ry
     estimated scf accuracy    <       1.15978429 Ry

     iteration # 51     ecut=    40.00 Ry     beta= 0.40
     Davidson diagonalization with overlap

---- Real-time Memory Report at c_bands before calling an iterative solver
          1256 MiB given to the printing process from OS
          1068 MiB allocation reported by mallinfo(arena+hblkhd)
         27523 MiB available memory on the node where the printing process lives
------------------
     ethr =  5.39E-05,  avg # of iterations =  1.5

     total cpu time spent up to now is    14215.5 secs

     total energy              =   -1527.04822649 Ry
     estimated scf accuracy    <       1.37991993 Ry

     iteration # 52     ecut=    40.00 Ry     beta= 0.40
     Davidson diagonalization with overlap

---- Real-time Memory Report at c_bands before calling an iterative solver
          1256 MiB given to the printing process from OS
          1068 MiB allocation reported by mallinfo(arena+hblkhd)
         27532 MiB available memory on the node where the printing process lives
------------------
     ethr =  5.39E-05,  avg # of iterations =  1.0

     total cpu time spent up to now is    14423.8 secs

     total energy              =   -1526.95888878 Ry
     estimated scf accuracy    <       1.26367580 Ry

     iteration # 53     ecut=    40.00 Ry     beta= 0.40
     Davidson diagonalization with overlap

---- Real-time Memory Report at c_bands before calling an iterative solver
          1256 MiB given to the printing process from OS
          1068 MiB allocation reported by mallinfo(arena+hblkhd)
         27780 MiB available memory on the node where the printing process lives
------------------
     c_bands:  1 eigenvalues not converged
     c_bands:  1 eigenvalues not converged
     c_bands:  1 eigenvalues not converged
     ethr =  5.39E-05,  avg # of iterations = 13.5

     total cpu time spent up to now is    14781.7 secs

     total energy              =   -1527.01394294 Ry
     estimated scf accuracy    <       0.28299923 Ry

     iteration # 54     ecut=    40.00 Ry     beta= 0.40
     Davidson diagonalization with overlap

---- Real-time Memory Report at c_bands before calling an iterative solver
          1256 MiB given to the printing process from OS
          1068 MiB allocation reported by mallinfo(arena+hblkhd)
         27777 MiB available memory on the node where the printing process lives
------------------
     ethr =  5.39E-05,  avg # of iterations =  2.8

     total cpu time spent up to now is    14996.0 secs

     total energy              =   -1526.99741589 Ry
     estimated scf accuracy    <       0.26946057 Ry

     iteration # 55     ecut=    40.00 Ry     beta= 0.40
     Davidson diagonalization with overlap

---- Real-time Memory Report at c_bands before calling an iterative solver
          1256 MiB given to the printing process from OS
          1068 MiB allocation reported by mallinfo(arena+hblkhd)
         27783 MiB available memory on the node where the printing process lives
------------------
     c_bands:  1 eigenvalues not converged
     ethr =  5.39E-05,  avg # of iterations = 19.0

     total cpu time spent up to now is    15415.4 secs

     total energy              =   -1526.84818085 Ry
     estimated scf accuracy    <       3.46569938 Ry

     iteration # 56     ecut=    40.00 Ry     beta= 0.40
     Davidson diagonalization with overlap

---- Real-time Memory Report at c_bands before calling an iterative solver
          1256 MiB given to the printing process from OS
          1068 MiB allocation reported by mallinfo(arena+hblkhd)
         27818 MiB available memory on the node where the printing process lives
------------------
     c_bands:  1 eigenvalues not converged
     c_bands:  1 eigenvalues not converged
     c_bands:  1 eigenvalues not converged
     ethr =  5.39E-05,  avg # of iterations = 17.6

     total cpu time spent up to now is    15845.8 secs

     total energy              =   -1527.01084284 Ry
     estimated scf accuracy    <       0.12587324 Ry

     iteration # 57     ecut=    40.00 Ry     beta= 0.40
     Davidson diagonalization with overlap

---- Real-time Memory Report at c_bands before calling an iterative solver
          1256 MiB given to the printing process from OS
          1068 MiB allocation reported by mallinfo(arena+hblkhd)
         27841 MiB available memory on the node where the printing process lives
------------------
     ethr =  5.39E-05,  avg # of iterations =  1.1

     total cpu time spent up to now is    16054.6 secs

     total energy              =   -1527.00947085 Ry
     estimated scf accuracy    <       0.12708851 Ry

     iteration # 58     ecut=    40.00 Ry     beta= 0.40
     Davidson diagonalization with overlap

---- Real-time Memory Report at c_bands before calling an iterative solver
          1256 MiB given to the printing process from OS
          1068 MiB allocation reported by mallinfo(arena+hblkhd)
         27843 MiB available memory on the node where the printing process lives
------------------
     ethr =  5.39E-05,  avg # of iterations =  1.0

     total cpu time spent up to now is    16262.8 secs

     total energy              =   -1527.00450277 Ry
     estimated scf accuracy    <       0.11919626 Ry

     iteration # 59     ecut=    40.00 Ry     beta= 0.40
     Davidson diagonalization with overlap

---- Real-time Memory Report at c_bands before calling an iterative solver
          1256 MiB given to the printing process from OS
          1068 MiB allocation reported by mallinfo(arena+hblkhd)
         26064 MiB available memory on the node where the printing process lives
------------------
     ethr =  5.39E-05,  avg # of iterations =  1.0

     total cpu time spent up to now is    16471.5 secs

     total energy              =   -1527.01645647 Ry
     estimated scf accuracy    <       0.08803389 Ry

     iteration # 60     ecut=    40.00 Ry     beta= 0.40
     Davidson diagonalization with overlap

---- Real-time Memory Report at c_bands before calling an iterative solver
          1256 MiB given to the printing process from OS
          1068 MiB allocation reported by mallinfo(arena+hblkhd)
         26277 MiB available memory on the node where the printing process lives
------------------
     c_bands:  1 eigenvalues not converged
     c_bands:  1 eigenvalues not converged
     c_bands:  1 eigenvalues not converged
     c_bands:  1 eigenvalues not converged
     ethr =  4.59E-05,  avg # of iterations = 11.0

     total cpu time spent up to now is    16718.0 secs

     total energy              =   -1526.99878260 Ry
     estimated scf accuracy    <       0.38285157 Ry

     iteration # 61     ecut=    40.00 Ry     beta= 0.40
     Davidson diagonalization with overlap

---- Real-time Memory Report at c_bands before calling an iterative solver
          1256 MiB given to the printing process from OS
          1068 MiB allocation reported by mallinfo(arena+hblkhd)
         25788 MiB available memory on the node where the printing process lives
------------------
     c_bands:  1 eigenvalues not converged
     ethr =  4.59E-05,  avg # of iterations = 10.0

     total cpu time spent up to now is    16969.9 secs

     total energy              =   -1527.01000802 Ry
     estimated scf accuracy    <       0.10761330 Ry

     iteration # 62     ecut=    40.00 Ry     beta= 0.40
     Davidson diagonalization with overlap

---- Real-time Memory Report at c_bands before calling an iterative solver
          1256 MiB given to the printing process from OS
          1068 MiB allocation reported by mallinfo(arena+hblkhd)
         26166 MiB available memory on the node where the printing process lives
------------------
     ethr =  4.59E-05,  avg # of iterations = 13.9

     total cpu time spent up to now is    17285.0 secs

     total energy              =   -1526.93665712 Ry
     estimated scf accuracy    <       1.32042542 Ry

     iteration # 63     ecut=    40.00 Ry     beta= 0.40
     Davidson diagonalization with overlap

---- Real-time Memory Report at c_bands before calling an iterative solver
          1256 MiB given to the printing process from OS
          1068 MiB allocation reported by mallinfo(arena+hblkhd)
         25876 MiB available memory on the node where the printing process lives
------------------
     c_bands:  1 eigenvalues not converged
     c_bands:  2 eigenvalues not converged
     c_bands:  1 eigenvalues not converged
     ethr =  4.59E-05,  avg # of iterations = 18.9

     total cpu time spent up to now is    17694.1 secs

     total energy              =   -1527.02790521 Ry
     estimated scf accuracy    <       0.39231484 Ry

     iteration # 64     ecut=    40.00 Ry     beta= 0.40
     Davidson diagonalization with overlap

---- Real-time Memory Report at c_bands before calling an iterative solver
          1256 MiB given to the printing process from OS
          1068 MiB allocation reported by mallinfo(arena+hblkhd)
         25858 MiB available memory on the node where the printing process lives
------------------
     ethr =  4.59E-05,  avg # of iterations =  1.4

     total cpu time spent up to now is    17907.2 secs

     total energy              =   -1527.01666649 Ry
     estimated scf accuracy    <       0.46175937 Ry

     iteration # 65     ecut=    40.00 Ry     beta= 0.40
     Davidson diagonalization with overlap

---- Real-time Memory Report at c_bands before calling an iterative solver
          1256 MiB given to the printing process from OS
          1068 MiB allocation reported by mallinfo(arena+hblkhd)
         26220 MiB available memory on the node where the printing process lives
------------------
     ethr =  4.59E-05,  avg # of iterations =  2.9

     total cpu time spent up to now is    18135.0 secs

     total energy              =   -1527.01612155 Ry
     estimated scf accuracy    <       0.40198346 Ry

     iteration # 66     ecut=    40.00 Ry     beta= 0.40
     Davidson diagonalization with overlap

---- Real-time Memory Report at c_bands before calling an iterative solver
          1256 MiB given to the printing process from OS
          1068 MiB allocation reported by mallinfo(arena+hblkhd)
         26209 MiB available memory on the node where the printing process lives
------------------
     ethr =  4.59E-05,  avg # of iterations =  1.0

     total cpu time spent up to now is    18344.0 secs

     total energy              =   -1527.01970700 Ry
     estimated scf accuracy    <       0.38223072 Ry

     iteration # 67     ecut=    40.00 Ry     beta= 0.40
     Davidson diagonalization with overlap

---- Real-time Memory Report at c_bands before calling an iterative solver
          1256 MiB given to the printing process from OS
          1068 MiB allocation reported by mallinfo(arena+hblkhd)
         25990 MiB available memory on the node where the printing process lives
------------------
     ethr =  4.59E-05,  avg # of iterations =  6.5

     total cpu time spent up to now is    18579.4 secs

     total energy              =   -1527.00301323 Ry
     estimated scf accuracy    <       0.40226012 Ry

     iteration # 68     ecut=    40.00 Ry     beta= 0.40
     Davidson diagonalization with overlap

---- Real-time Memory Report at c_bands before calling an iterative solver
          1256 MiB given to the printing process from OS
          1068 MiB allocation reported by mallinfo(arena+hblkhd)
         25820 MiB available memory on the node where the printing process lives
------------------
     ethr =  4.59E-05,  avg # of iterations =  3.5

     total cpu time spent up to now is    18808.6 secs

     total energy              =   -1527.01266492 Ry
     estimated scf accuracy    <       0.26083813 Ry

     iteration # 69     ecut=    40.00 Ry     beta= 0.40
     Davidson diagonalization with overlap

---- Real-time Memory Report at c_bands before calling an iterative solver
          1256 MiB given to the printing process from OS
          1068 MiB allocation reported by mallinfo(arena+hblkhd)
         26189 MiB available memory on the node where the printing process lives
------------------
     ethr =  4.59E-05,  avg # of iterations =  1.5

     total cpu time spent up to now is    19021.7 secs

     total energy              =   -1527.02261638 Ry
     estimated scf accuracy    <       0.28139917 Ry

     iteration # 70     ecut=    40.00 Ry     beta= 0.40
     Davidson diagonalization with overlap

---- Real-time Memory Report at c_bands before calling an iterative solver
          1256 MiB given to the printing process from OS
          1068 MiB allocation reported by mallinfo(arena+hblkhd)
         26181 MiB available memory on the node where the printing process lives
------------------
     ethr =  4.59E-05,  avg # of iterations =  2.1

     total cpu time spent up to now is    19245.2 secs

     total energy              =   -1527.01848864 Ry
     estimated scf accuracy    <       0.35949992 Ry

     iteration # 71     ecut=    40.00 Ry     beta= 0.40
     Davidson diagonalization with overlap

---- Real-time Memory Report at c_bands before calling an iterative solver
          1256 MiB given to the printing process from OS
          1068 MiB allocation reported by mallinfo(arena+hblkhd)
         25792 MiB available memory on the node where the printing process lives
------------------
     ethr =  4.59E-05,  avg # of iterations =  1.1

     total cpu time spent up to now is    19456.8 secs

     total energy              =   -1526.93402264 Ry
     estimated scf accuracy    <       0.35221100 Ry

     iteration # 72     ecut=    40.00 Ry     beta= 0.40
     Davidson diagonalization with overlap

---- Real-time Memory Report at c_bands before calling an iterative solver
          1256 MiB given to the printing process from OS
          1068 MiB allocation reported by mallinfo(arena+hblkhd)
         25996 MiB available memory on the node where the printing process lives
------------------
     c_bands:  2 eigenvalues not converged
     c_bands:  1 eigenvalues not converged
     c_bands:  1 eigenvalues not converged
     c_bands:  2 eigenvalues not converged
     c_bands:  2 eigenvalues not converged
     c_bands:  1 eigenvalues not converged
     ethr =  4.59E-05,  avg # of iterations = 20.0

     total cpu time spent up to now is    19914.4 secs

     total energy              =   -1526.89891641 Ry
     estimated scf accuracy    <       3.29274336 Ry

     iteration # 73     ecut=    40.00 Ry     beta= 0.40
     Davidson diagonalization with overlap

---- Real-time Memory Report at c_bands before calling an iterative solver
          1256 MiB given to the printing process from OS
          1068 MiB allocation reported by mallinfo(arena+hblkhd)
         24891 MiB available memory on the node where the printing process lives
------------------
     c_bands:  2 eigenvalues not converged
     c_bands:  2 eigenvalues not converged
     c_bands:  1 eigenvalues not converged
     c_bands:  2 eigenvalues not converged
     c_bands:  2 eigenvalues not converged
     ethr =  4.59E-05,  avg # of iterations = 19.2

     total cpu time spent up to now is    20351.0 secs

     total energy              =   -1527.00948277 Ry
     estimated scf accuracy    <       0.19658267 Ry

     iteration # 74     ecut=    40.00 Ry     beta= 0.40
     Davidson diagonalization with overlap

---- Real-time Memory Report at c_bands before calling an iterative solver
          1256 MiB given to the printing process from OS
          1068 MiB allocation reported by mallinfo(arena+hblkhd)
         23605 MiB available memory on the node where the printing process lives
------------------
     ethr =  4.59E-05,  avg # of iterations =  2.6

     total cpu time spent up to now is    20574.1 secs

     total energy              =   -1527.00726812 Ry
     estimated scf accuracy    <       0.20780462 Ry

     iteration # 75     ecut=    40.00 Ry     beta= 0.40
     Davidson diagonalization with overlap

---- Real-time Memory Report at c_bands before calling an iterative solver
          1256 MiB given to the printing process from OS
          1068 MiB allocation reported by mallinfo(arena+hblkhd)
         23764 MiB available memory on the node where the printing process lives
------------------
     ethr =  4.59E-05,  avg # of iterations = 11.5

     total cpu time spent up to now is    20860.0 secs

     total energy              =   -1527.02859835 Ry
     estimated scf accuracy    <       0.56725005 Ry

     iteration # 76     ecut=    40.00 Ry     beta= 0.40
     Davidson diagonalization with overlap

---- Real-time Memory Report at c_bands before calling an iterative solver
          1256 MiB given to the printing process from OS
          1068 MiB allocation reported by mallinfo(arena+hblkhd)
         23220 MiB available memory on the node where the printing process lives
------------------
     ethr =  4.59E-05,  avg # of iterations =  1.1

     total cpu time spent up to now is    21074.1 secs

     total energy              =   -1527.03632637 Ry
     estimated scf accuracy    <       0.61560285 Ry

     iteration # 77     ecut=    40.00 Ry     beta= 0.40
     Davidson diagonalization with overlap

---- Real-time Memory Report at c_bands before calling an iterative solver
          1256 MiB given to the printing process from OS
          1068 MiB allocation reported by mallinfo(arena+hblkhd)
         23226 MiB available memory on the node where the printing process lives
------------------
     ethr =  4.59E-05,  avg # of iterations =  2.1

     total cpu time spent up to now is    21298.3 secs

     total energy              =   -1527.04252610 Ry
     estimated scf accuracy    <       0.70704738 Ry

     iteration # 78     ecut=    40.00 Ry     beta= 0.40
     Davidson diagonalization with overlap

---- Real-time Memory Report at c_bands before calling an iterative solver
          1256 MiB given to the printing process from OS
          1068 MiB allocation reported by mallinfo(arena+hblkhd)
         23581 MiB available memory on the node where the printing process lives
------------------
     ethr =  4.59E-05,  avg # of iterations =  1.8

     total cpu time spent up to now is    21521.6 secs

     total energy              =   -1527.02193331 Ry
     estimated scf accuracy    <       0.77350965 Ry

     iteration # 79     ecut=    40.00 Ry     beta= 0.40
     Davidson diagonalization with overlap

---- Real-time Memory Report at c_bands before calling an iterative solver
          1256 MiB given to the printing process from OS
          1068 MiB allocation reported by mallinfo(arena+hblkhd)
         23098 MiB available memory on the node where the printing process lives
------------------
     ethr =  4.59E-05,  avg # of iterations =  1.0

     total cpu time spent up to now is    21733.8 secs

     total energy              =   -1527.03854447 Ry
     estimated scf accuracy    <       0.70646863 Ry

     iteration # 80     ecut=    40.00 Ry     beta= 0.40
     Davidson diagonalization with overlap

---- Real-time Memory Report at c_bands before calling an iterative solver
          1256 MiB given to the printing process from OS
          1068 MiB allocation reported by mallinfo(arena+hblkhd)
         23464 MiB available memory on the node where the printing process lives
------------------
     ethr =  4.59E-05,  avg # of iterations =  2.6

     total cpu time spent up to now is    21963.2 secs

     total energy              =   -1527.13709559 Ry
     estimated scf accuracy    <       0.79513153 Ry

     iteration # 81     ecut=    40.00 Ry     beta= 0.40
     Davidson diagonalization with overlap

---- Real-time Memory Report at c_bands before calling an iterative solver
          1256 MiB given to the printing process from OS
          1068 MiB allocation reported by mallinfo(arena+hblkhd)
         23052 MiB available memory on the node where the printing process lives
------------------
     c_bands:  1 eigenvalues not converged
     c_bands:  1 eigenvalues not converged
     ethr =  4.59E-05,  avg # of iterations = 16.8

     total cpu time spent up to now is    22414.0 secs

     total energy              =   -1526.91611219 Ry
     estimated scf accuracy    <       7.63991631 Ry

     iteration # 82     ecut=    40.00 Ry     beta= 0.40
     Davidson diagonalization with overlap

---- Real-time Memory Report at c_bands before calling an iterative solver
          1256 MiB given to the printing process from OS
          1068 MiB allocation reported by mallinfo(arena+hblkhd)
         23227 MiB available memory on the node where the printing process lives
------------------
     ethr =  4.59E-05,  avg # of iterations = 15.2

     total cpu time spent up to now is    22826.2 secs

     total energy              =   -1527.03771689 Ry
     estimated scf accuracy    <       1.41337848 Ry

     iteration # 83     ecut=    40.00 Ry     beta= 0.40
     Davidson diagonalization with overlap

---- Real-time Memory Report at c_bands before calling an iterative solver
          1256 MiB given to the printing process from OS
          1068 MiB allocation reported by mallinfo(arena+hblkhd)
         23528 MiB available memory on the node where the printing process lives
------------------
     ethr =  4.59E-05,  avg # of iterations =  1.0

     total cpu time spent up to now is    23038.4 secs

     total energy              =   -1526.97735469 Ry
     estimated scf accuracy    <       1.40619317 Ry

     iteration # 84     ecut=    40.00 Ry     beta= 0.40
     Davidson diagonalization with overlap

---- Real-time Memory Report at c_bands before calling an iterative solver
          1256 MiB given to the printing process from OS
          1068 MiB allocation reported by mallinfo(arena+hblkhd)
         23273 MiB available memory on the node where the printing process lives
------------------
     c_bands:  1 eigenvalues not converged
     c_bands:  1 eigenvalues not converged
     c_bands:  1 eigenvalues not converged
     c_bands:  1 eigenvalues not converged
     ethr =  4.59E-05,  avg # of iterations = 19.2

     total cpu time spent up to now is    23445.9 secs

     total energy              =   -1526.98745862 Ry
     estimated scf accuracy    <       1.42171007 Ry

     iteration # 85     ecut=    40.00 Ry     beta= 0.40
     Davidson diagonalization with overlap

---- Real-time Memory Report at c_bands before calling an iterative solver
          1256 MiB given to the printing process from OS
          1068 MiB allocation reported by mallinfo(arena+hblkhd)
         23289 MiB available memory on the node where the printing process lives
------------------
     ethr =  4.59E-05,  avg # of iterations = 10.6

     total cpu time spent up to now is    23762.0 secs

     total energy              =   -1526.99684611 Ry
     estimated scf accuracy    <       0.24564431 Ry

     iteration # 86     ecut=    40.00 Ry     beta= 0.40
     Davidson diagonalization with overlap

---- Real-time Memory Report at c_bands before calling an iterative solver
          1256 MiB given to the printing process from OS
          1068 MiB allocation reported by mallinfo(arena+hblkhd)
         23026 MiB available memory on the node where the printing process lives
------------------
     ethr =  4.59E-05,  avg # of iterations = 10.1

     total cpu time spent up to now is    24024.2 secs

     total energy              =   -1527.00515076 Ry
     estimated scf accuracy    <       0.15251947 Ry

     iteration # 87     ecut=    40.00 Ry     beta= 0.40
     Davidson diagonalization with overlap

---- Real-time Memory Report at c_bands before calling an iterative solver
          1256 MiB given to the printing process from OS
          1068 MiB allocation reported by mallinfo(arena+hblkhd)
         23399 MiB available memory on the node where the printing process lives
------------------
     ethr =  4.59E-05,  avg # of iterations =  1.0

     total cpu time spent up to now is    24235.9 secs

     total energy              =   -1526.99705349 Ry
     estimated scf accuracy    <       0.14741665 Ry

     iteration # 88     ecut=    40.00 Ry     beta= 0.40
     Davidson diagonalization with overlap

---- Real-time Memory Report at c_bands before calling an iterative solver
          1256 MiB given to the printing process from OS
          1068 MiB allocation reported by mallinfo(arena+hblkhd)
         23357 MiB available memory on the node where the printing process lives
------------------
     ethr =  4.59E-05,  avg # of iterations =  4.6

     total cpu time spent up to now is    24469.4 secs

     total energy              =   -1526.99758671 Ry
     estimated scf accuracy    <       0.08133552 Ry

     iteration # 89     ecut=    40.00 Ry     beta= 0.40
     Davidson diagonalization with overlap

---- Real-time Memory Report at c_bands before calling an iterative solver
          1256 MiB given to the printing process from OS
          1068 MiB allocation reported by mallinfo(arena+hblkhd)
         22985 MiB available memory on the node where the printing process lives
------------------
     ethr =  4.24E-05,  avg # of iterations =  1.5

     total cpu time spent up to now is    24688.7 secs

     total energy              =   -1526.99248398 Ry
     estimated scf accuracy    <       0.05964312 Ry

     iteration # 90     ecut=    40.00 Ry     beta= 0.40
     Davidson diagonalization with overlap

---- Real-time Memory Report at c_bands before calling an iterative solver
          1256 MiB given to the printing process from OS
          1068 MiB allocation reported by mallinfo(arena+hblkhd)
         23027 MiB available memory on the node where the printing process lives
------------------
     c_bands:  1 eigenvalues not converged
     c_bands:  1 eigenvalues not converged
     c_bands:  1 eigenvalues not converged
     c_bands:  1 eigenvalues not converged
     ethr =  3.11E-05,  avg # of iterations = 14.2

     total cpu time spent up to now is    25049.3 secs

     total energy              =   -1527.01431563 Ry
     estimated scf accuracy    <       0.55890001 Ry

     iteration # 91     ecut=    40.00 Ry     beta= 0.40
     Davidson diagonalization with overlap

---- Real-time Memory Report at c_bands before calling an iterative solver
          1256 MiB given to the printing process from OS
          1068 MiB allocation reported by mallinfo(arena+hblkhd)
         23337 MiB available memory on the node where the printing process lives
------------------
     ethr =  3.11E-05,  avg # of iterations =  4.8

     total cpu time spent up to now is    25276.0 secs

     total energy              =   -1527.01019173 Ry
     estimated scf accuracy    <       0.48672924 Ry

     iteration # 92     ecut=    40.00 Ry     beta= 0.40
     Davidson diagonalization with overlap

---- Real-time Memory Report at c_bands before calling an iterative solver
          1256 MiB given to the printing process from OS
          1068 MiB allocation reported by mallinfo(arena+hblkhd)
         23454 MiB available memory on the node where the printing process lives
------------------
     ethr =  3.11E-05,  avg # of iterations =  1.0

     total cpu time spent up to now is    25490.0 secs

     total energy              =   -1526.98066492 Ry
     estimated scf accuracy    <       0.44271102 Ry

     iteration # 93     ecut=    40.00 Ry     beta= 0.40
     Davidson diagonalization with overlap

---- Real-time Memory Report at c_bands before calling an iterative solver
          1256 MiB given to the printing process from OS
          1068 MiB allocation reported by mallinfo(arena+hblkhd)
         23151 MiB available memory on the node where the printing process lives
------------------
     c_bands:  1 eigenvalues not converged
     c_bands:  1 eigenvalues not converged
     c_bands:  1 eigenvalues not converged
     c_bands:  1 eigenvalues not converged
     ethr =  3.11E-05,  avg # of iterations = 14.0

     total cpu time spent up to now is    25839.6 secs

     total energy              =   -1527.00584024 Ry
     estimated scf accuracy    <       0.10298155 Ry

     iteration # 94     ecut=    40.00 Ry     beta= 0.40
     Davidson diagonalization with overlap

---- Real-time Memory Report at c_bands before calling an iterative solver
          1256 MiB given to the printing process from OS
          1068 MiB allocation reported by mallinfo(arena+hblkhd)
         23409 MiB available memory on the node where the printing process lives
------------------
     ethr =  3.11E-05,  avg # of iterations =  1.6

     total cpu time spent up to now is    26055.8 secs

     total energy              =   -1527.00640232 Ry
     estimated scf accuracy    <       0.08450326 Ry

     iteration # 95     ecut=    40.00 Ry     beta= 0.40
     Davidson diagonalization with overlap

---- Real-time Memory Report at c_bands before calling an iterative solver
          1256 MiB given to the printing process from OS
          1068 MiB allocation reported by mallinfo(arena+hblkhd)
         23347 MiB available memory on the node where the printing process lives
------------------
     ethr =  3.11E-05,  avg # of iterations =  1.0

     total cpu time spent up to now is    26266.0 secs

     total energy              =   -1527.00616858 Ry
     estimated scf accuracy    <       0.08303985 Ry

     iteration # 96     ecut=    40.00 Ry     beta= 0.40
     Davidson diagonalization with overlap

---- Real-time Memory Report at c_bands before calling an iterative solver
          1256 MiB given to the printing process from OS
          1068 MiB allocation reported by mallinfo(arena+hblkhd)
         23163 MiB available memory on the node where the printing process lives
------------------
     ethr =  3.11E-05,  avg # of iterations =  1.1

     total cpu time spent up to now is    26478.4 secs

     total energy              =   -1527.00427398 Ry
     estimated scf accuracy    <       0.08113407 Ry

     iteration # 97     ecut=    40.00 Ry     beta= 0.40
     Davidson diagonalization with overlap

---- Real-time Memory Report at c_bands before calling an iterative solver
          1256 MiB given to the printing process from OS
          1068 MiB allocation reported by mallinfo(arena+hblkhd)
         23037 MiB available memory on the node where the printing process lives
------------------
     ethr =  3.11E-05,  avg # of iterations =  1.6

     total cpu time spent up to now is    26696.0 secs

     total energy              =   -1527.00249134 Ry
     estimated scf accuracy    <       0.06826213 Ry

     iteration # 98     ecut=    40.00 Ry     beta= 0.40
     Davidson diagonalization with overlap

---- Real-time Memory Report at c_bands before calling an iterative solver
          1256 MiB given to the printing process from OS
          1068 MiB allocation reported by mallinfo(arena+hblkhd)
         23096 MiB available memory on the node where the printing process lives
------------------
     ethr =  3.11E-05,  avg # of iterations =  2.0

     total cpu time spent up to now is    26914.4 secs

     total energy              =   -1526.98918427 Ry
     estimated scf accuracy    <       0.04936545 Ry

     iteration # 99     ecut=    40.00 Ry     beta= 0.40
     Davidson diagonalization with overlap

---- Real-time Memory Report at c_bands before calling an iterative solver
          1256 MiB given to the printing process from OS
          1068 MiB allocation reported by mallinfo(arena+hblkhd)
         23030 MiB available memory on the node where the printing process lives
------------------
     c_bands:  1 eigenvalues not converged
     c_bands:  1 eigenvalues not converged
     c_bands:  1 eigenvalues not converged
     ethr =  2.57E-05,  avg # of iterations = 16.4

     total cpu time spent up to now is    27330.9 secs

     total energy              =   -1527.00029892 Ry
     estimated scf accuracy    <       1.03061143 Ry

     iteration #100     ecut=    40.00 Ry     beta= 0.40
     Davidson diagonalization with overlap

---- Real-time Memory Report at c_bands before calling an iterative solver
          1256 MiB given to the printing process from OS
          1068 MiB allocation reported by mallinfo(arena+hblkhd)
         23235 MiB available memory on the node where the printing process lives
------------------
     ethr =  2.57E-05,  avg # of iterations = 11.4

     total cpu time spent up to now is    27623.1 secs

     total energy              =   -1527.01342442 Ry
     estimated scf accuracy    <       0.30850991 Ry

     End of self-consistent calculation

     convergence NOT achieved after 100 iterations: stopping

     Writing config to output data dir ./tmp/LiFePO4.save/ :
     XML data file, charge density

     init_run     :    123.23s CPU    124.96s WALL (       1 calls)
     electrons    :  27323.73s CPU  27498.89s WALL (       1 calls)

     Called by init_run:
     wfcinit      :    113.03s CPU    114.30s WALL (       1 calls)
     wfcinit:atom :      0.77s CPU      1.07s WALL (       8 calls)
     wfcinit:wfcr :    106.09s CPU    106.66s WALL (       8 calls)
     potinit      :      4.40s CPU      4.69s WALL (       1 calls)
     hinit0       :      5.20s CPU      5.35s WALL (       1 calls)

     Called by electrons:
     c_bands      :  24279.53s CPU  24423.66s WALL (     100 calls)
     sum_band     :   2288.33s CPU   2293.79s WALL (     100 calls)
     v_of_rho     :    209.16s CPU    222.66s WALL (     101 calls)
     v_h          :     14.34s CPU     15.98s WALL (     101 calls)
     v_xc         :    194.81s CPU    206.68s WALL (     101 calls)
     mix_rho      :    530.11s CPU    540.97s WALL (     100 calls)

     Called by c_bands:
     init_us_2    :    343.96s CPU    346.24s WALL (    1608 calls)
     cegterg      :  23312.62s CPU  23449.94s WALL (     800 calls)

     Called by sum_band:
     sum_band:wei :      0.00s CPU      0.00s WALL (     100 calls)
     sum_band:loo :   2272.36s CPU   2276.59s WALL (     100 calls)
     sum_band:buf :     19.04s CPU     20.39s WALL (     800 calls)
     sum_band:ini :    170.94s CPU    171.62s WALL (     800 calls)

     Called by *egterg:
     cdiaghg      :    169.10s CPU    169.36s WALL (    6271 calls)
     cegterg:over :   1815.16s CPU   1820.30s WALL (    5471 calls)
     cegterg:upda :   1189.08s CPU   1216.18s WALL (    5471 calls)
     cegterg:last :   1708.12s CPU   1710.57s WALL (    1603 calls)
     h_psi        :  17744.14s CPU  17807.08s WALL (    6279 calls)
     g_psi        :     91.29s CPU     91.49s WALL (    5471 calls)

     Called by h_psi:
     h_psi:calbec :   3216.90s CPU   3219.55s WALL (    6279 calls)
     vloc_psi     :  11179.31s CPU  11190.48s WALL (    6279 calls)
     add_vuspsi   :   3292.30s CPU   3294.32s WALL (    6279 calls)

     General routines
     calbec       :   3216.85s CPU   3219.52s WALL (    6279 calls)
     fft          :    104.88s CPU    104.98s WALL (    1212 calls)
     ffts         :    202.89s CPU    203.06s WALL (    7827 calls)
     fftw         :  10074.47s CPU  10080.87s WALL (  465318 calls)
     interpolate  :     15.68s CPU     15.72s WALL (     101 calls)
     davcio       :      0.01s CPU      0.54s WALL (      26 calls)

     Parallel routines

     PWSCF        :      7h37m CPU      7h40m WALL


   This run was terminated on:   3:10:13  25Nov2025            

=------------------------------------------------------------------------------=
   JOB DONE.
=------------------------------------------------------------------------------=
