
     Program PWSCF v.7.4 starts on 25Nov2025 at 20:24:21 

     This program is part of the open-source Quantum ESPRESSO suite
     for quantum simulation of materials; please cite
         "P. Giannozzi et al., J. Phys.:Condens. Matter 21 395502 (2009);
         "P. Giannozzi et al., J. Phys.:Condens. Matter 29 465901 (2017);
         "P. Giannozzi et al., J. Chem. Phys. 152 154105 (2020);
          URL http://www.quantum-espresso.org", 
     in publications or presentations arising from this work. More details at
     http://www.quantum-espresso.org/quote

     Parallel version (MPI & OpenMP), running on       8 processor cores
     Number of MPI processes:                 1
     Threads/MPI process:                     8

     MPI processes distributed on     1 nodes
     30786 MiB available memory on the printing compute node when the environment starts

     Waiting for input...
     Reading input from standard input

     Current dimensions of program PWSCF are:
     Max number of different atomic species (ntypx) = 10
     Max number of k-points (npk) =  40000
     Max angular momentum in pseudopotentials (lmaxx) =  4

     Subspace diagonalization in iterative solution of the eigenvalue problem:
     a serial algorithm will be used


     G-vector sticks info
     --------------------
     sticks:   dense  smooth     PW     G-vecs:    dense   smooth      PW
     Sum       16693   16693   4599               482247   482247   69897

     Using Slab Decomposition



     bravais-lattice index     =            0
     lattice parameter (alat)  =      38.6872  a.u.
     unit-cell volume          =    7679.5612 (a.u.)^3
     number of atoms/cell      =           28
     number of atomic types    =            4
     number of electrons       =       192.00 (up:  96.00, down:  96.00)
     number of Kohn-Sham states=           96
     kinetic-energy cutoff     =      60.0000  Ry
     charge density cutoff     =     240.0000  Ry
     scf convergence threshold =      1.0E-03
     mixing beta               =       0.1000
     number of iterations used =            8  local-TF  mixing
     Exchange-correlation= PBE
                           (   1   4   3   4   0   0   0)

     celldm(1)=  38.687214  celldm(2)=   0.000000  celldm(3)=   0.000000
     celldm(4)=   0.000000  celldm(5)=   0.000000  celldm(6)=   0.000000

     crystal axes: (cart. coord. in units of alat)
               a(1) = (   1.000000   0.000000   0.000000 )  
               a(2) = (   0.000000   0.583298   0.000000 )  
               a(3) = (   0.000000   0.000000   0.227375 )  

     reciprocal axes: (cart. coord. in units 2 pi/alat)
               b(1) = (  1.000000  0.000000  0.000000 )  
               b(2) = (  0.000000  1.714389  0.000000 )  
               b(3) = (  0.000000  0.000000  4.398014 )  


     PseudoPot. # 1 for Li read from file:
     ./Li.upf
     MD5 check sum: dbcf0ea72988e720c8c712b432d51b0d
     Pseudo is Norm-conserving, Zval =  3.0
     Generated using ONCVPSP code by D. R. Hamann
     Using radial grid of 1944 points,  4 beta functions with: 
                l(1) =   0
                l(2) =   0
                l(3) =   1
                l(4) =   1

     PseudoPot. # 2 for Fe read from file:
     ./Fe.upf
     MD5 check sum: a5f07f5dca5be6cacb81ceb54992e4ae
     Pseudo is Norm-conserving + core correction, Zval = 16.0
     Generated using ONCVPSP code by D. R. Hamann
     Using radial grid of 1426 points,  6 beta functions with: 
                l(1) =   0
                l(2) =   0
                l(3) =   1
                l(4) =   1
                l(5) =   2
                l(6) =   2

     PseudoPot. # 3 for P  read from file:
     ./P.upf
     MD5 check sum: c802fd0635a0ed1615482a1b584dae5b
     Pseudo is Norm-conserving + core correction, Zval =  5.0
     Generated using ONCVPSP code by D. R. Hamann
     Using radial grid of 1298 points,  6 beta functions with: 
                l(1) =   0
                l(2) =   0
                l(3) =   1
                l(4) =   1
                l(5) =   2
                l(6) =   2

     PseudoPot. # 4 for O  read from file:
     ./O.upf
     MD5 check sum: 3e3f909f7470e8921608ab6b1f57bbae
     Pseudo is Norm-conserving + core correction, Zval =  6.0
     Generated using ONCVPSP code by D. R. Hamann
     Using radial grid of  936 points,  5 beta functions with: 
                l(1) =   0
                l(2) =   0
                l(3) =   1
                l(4) =   1
                l(5) =   2

     atomic species   valence    mass     pseudopotential
     Li                3.00     6.94000     Li( 1.00)
     Fe               16.00    55.84500     Fe( 1.00)
     P                 5.00    30.97400     P ( 1.00)
     O                 6.00    15.99900     O ( 1.00)

     Starting magnetic structure 
     atomic species   magnetization
     Li              0.000
     Fe              0.700
     P               0.000
     O               0.000

     No symmetry found


                                    s                        frac. trans.

      isym =  1     identity                                     

 cryst.   s( 1) = (     1          0          0      )
                  (     0          1          0      )
                  (     0          0          1      )

 cart.    s( 1) = (  1.0000000  0.0000000  0.0000000 )
                  (  0.0000000  1.0000000  0.0000000 )
                  (  0.0000000  0.0000000  1.0000000 )


   Cartesian axes

     site n.     atom                  positions (alat units)
         1        Li     tau(   1) = (   0.0000000   0.0000000   0.0000000  )
         2        Li     tau(   2) = (   0.1136877   0.1458247   0.2500001  )
         3        Li     tau(   3) = (   0.1136877   0.0000000   0.2500001  )
         4        Li     tau(   4) = (   0.0000000   0.1458247   0.0000000  )
         5        Fe     tau(   5) = (   0.1204783   0.0729123   0.3905758  )
         6        Fe     tau(   6) = (   0.0067906   0.2187370   0.3594245  )
         7        Fe     tau(   7) = (   0.2205844   0.0729123   0.1405757  )
         8        Fe     tau(   8) = (   0.1068971   0.2187370   0.1094244  )
         9        P      tau(   9) = (   0.0951843   0.0729123   0.0469330  )
        10        P      tau(  10) = (   0.2088720   0.2187370   0.2030666  )
        11        P      tau(  11) = (   0.0185035   0.0729123   0.2969331  )
        12        P      tau(  12) = (   0.1321907   0.2187370   0.4530667  )
        13        O      tau(  13) = (   0.1693461   0.0729123   0.0471152  )
        14        O      tau(  14) = (   0.1622859   0.1591114   0.4170773  )
        15        O      tau(  15) = (   0.1622859   0.2783622   0.4170773  )
        16        O      tau(  16) = (   0.0580294   0.2187370   0.4528845  )
        17        O      tau(  17) = (   0.1614057   0.2187370   0.0221542  )
        18        O      tau(  18) = (   0.0556584   0.2187370   0.2028844  )
        19        O      tau(  19) = (   0.0650896   0.0132872   0.0829229  )
        20        O      tau(  20) = (   0.0485981   0.1325375   0.3329225  )
        21        O      tau(  21) = (   0.1787773   0.1591114   0.1670772  )
        22        O      tau(  22) = (   0.1787773   0.2783622   0.1670772  )
        23        O      tau(  23) = (   0.0659698   0.0729123   0.4778455  )
        24        O      tau(  24) = (   0.0477179   0.0729123   0.2278459  )
        25        O      tau(  25) = (   0.1796576   0.2187370   0.2721543  )
        26        O      tau(  26) = (   0.1717171   0.0729123   0.2971153  )
        27        O      tau(  27) = (   0.0485981   0.0132872   0.3329225  )
        28        O      tau(  28) = (   0.0650896   0.1325375   0.0829229  )

   Crystallographic axes

     site n.     atom                  positions (cryst. coord.)
         1        Li     tau(   1) = (  0.0000000  0.0000000  0.0000000  )
         2        Li     tau(   2) = (  0.1136877  0.2500002  1.0995040  )
         3        Li     tau(   3) = (  0.1136877  0.0000000  1.0995040  )
         4        Li     tau(   4) = (  0.0000000  0.2500002  0.0000000  )
         5        Fe     tau(   5) = (  0.1204783  0.1250001  1.7177577  )
         6        Fe     tau(   6) = (  0.0067906  0.3750003  1.5807542  )
         7        Fe     tau(   7) = (  0.2205844  0.1250001  0.6182537  )
         8        Fe     tau(   8) = (  0.1068971  0.3750003  0.4812502  )
         9        P      tau(   9) = (  0.0951843  0.1250001  0.2064118  )
        10        P      tau(  10) = (  0.2088720  0.3750003  0.8930900  )
        11        P      tau(  11) = (  0.0185035  0.1250001  1.3059158  )
        12        P      tau(  12) = (  0.1321907  0.3750003  1.9925940  )
        13        O      tau(  13) = (  0.1693461  0.1250001  0.2072131  )
        14        O      tau(  14) = (  0.1622859  0.2727787  1.8343119  )
        15        O      tau(  15) = (  0.1622859  0.4772210  1.8343119  )
        16        O      tau(  16) = (  0.0580294  0.3750003  1.9917927  )
        17        O      tau(  17) = (  0.1614057  0.3750003  0.0974346  )
        18        O      tau(  18) = (  0.0556584  0.3750003  0.8922887  )
        19        O      tau(  19) = (  0.0650896  0.0227794  0.3646961  )
        20        O      tau(  20) = (  0.0485981  0.2272208  1.4641979  )
        21        O      tau(  21) = (  0.1787773  0.2727787  0.7348079  )
        22        O      tau(  22) = (  0.1787773  0.4772210  0.7348079  )
        23        O      tau(  23) = (  0.0659698  0.1250001  2.1015712  )
        24        O      tau(  24) = (  0.0477179  0.1250001  1.0020694  )
        25        O      tau(  25) = (  0.1796576  0.3750003  1.1969386  )
        26        O      tau(  26) = (  0.1717171  0.1250001  1.3067171  )
        27        O      tau(  27) = (  0.0485981  0.0227794  1.4641979  )
        28        O      tau(  28) = (  0.0650896  0.2272208  0.3646961  )

     number of k points=     8
                       cart. coord. in units 2pi/alat
        k(    1) = (   0.0000000   0.0000000   0.0000000), wk =   0.1250000
        k(    2) = (   0.0000000   0.0000000  -2.1990071), wk =   0.1250000
        k(    3) = (   0.0000000  -0.8571944   0.0000000), wk =   0.1250000
        k(    4) = (   0.0000000  -0.8571944  -2.1990071), wk =   0.1250000
        k(    5) = (  -0.5000000   0.0000000   0.0000000), wk =   0.1250000
        k(    6) = (  -0.5000000   0.0000000  -2.1990071), wk =   0.1250000
        k(    7) = (  -0.5000000  -0.8571944   0.0000000), wk =   0.1250000
        k(    8) = (  -0.5000000  -0.8571944  -2.1990071), wk =   0.1250000

                       cryst. coord.
        k(    1) = (   0.0000000   0.0000000   0.0000000), wk =   0.1250000
        k(    2) = (   0.0000000   0.0000000  -0.5000000), wk =   0.1250000
        k(    3) = (   0.0000000  -0.5000000   0.0000000), wk =   0.1250000
        k(    4) = (   0.0000000  -0.5000000  -0.5000000), wk =   0.1250000
        k(    5) = (  -0.5000000   0.0000000   0.0000000), wk =   0.1250000
        k(    6) = (  -0.5000000   0.0000000  -0.5000000), wk =   0.1250000
        k(    7) = (  -0.5000000  -0.5000000   0.0000000), wk =   0.1250000
        k(    8) = (  -0.5000000  -0.5000000  -0.5000000), wk =   0.1250000

     Dense  grid:   482247 G-vectors     FFT dimensions: ( 192, 120,  45)

     Dynamical RAM for                 wfc:      88.29 MB

     Dynamical RAM for     wfc (w. buffer):    1500.91 MB

     Dynamical RAM for           str. fact:      29.43 MB

     Dynamical RAM for           local pot:       0.00 MB

     Dynamical RAM for          nlocal pot:     353.16 MB

     Dynamical RAM for                qrad:       4.98 MB

     Dynamical RAM for          rho,v,vnew:      91.61 MB

     Dynamical RAM for               rhoin:      30.54 MB

     Dynamical RAM for            rho*nmix:     235.47 MB

     Dynamical RAM for           G-vectors:      31.27 MB

     Dynamical RAM for          h,s,v(r/c):       1.69 MB

     Dynamical RAM for          <psi|beta>:       0.56 MB

     Dynamical RAM for                 psi:     176.58 MB

     Dynamical RAM for                hpsi:     176.58 MB

     Dynamical RAM for      wfcinit/wfcrot:     176.79 MB

     Estimated static dynamical RAM per process >       2.08 GB

     Estimated max dynamical RAM per process >       2.65 GB

     Check: negative core charge=   -0.000013
     Generating pointlists ...
     new r_m :   0.0324 (alat units)  1.2540 (a.u.) for type    1
     new r_m :   0.0355 (alat units)  1.3733 (a.u.) for type    2
     new r_m :   0.0156 (alat units)  0.6017 (a.u.) for type    3
     new r_m :   0.0094 (alat units)  0.3630 (a.u.) for type    4

     Initial potential from superposition of free atoms

     starting charge     191.9796, renormalised to     192.0000

     negative rho (up, down):  1.362E-03 2.338E-04
     Starting wfcs are  128 randomized atomic wfcs

     total cpu time spent up to now is      258.9 secs

     Self-consistent Calculation

     iteration #  1     ecut=    60.00 Ry     beta= 0.10
     Davidson diagonalization with overlap

---- Real-time Memory Report at c_bands before calling an iterative solver
          2242 MiB given to the printing process from OS
         -1960 MiB allocation reported by mallinfo(arena+hblkhd)
         27197 MiB available memory on the node where the printing process lives
------------------
     ethr =  1.00E-02,  avg # of iterations =  6.4

     negative rho (up, down):  5.466E-04 6.843E-05

     total cpu time spent up to now is     1155.5 secs

     total energy              =   -1546.08947574 Ry
     estimated scf accuracy    <      39.06285985 Ry

     total magnetization       =     0.00 Bohr mag/cell
     absolute magnetization    =    21.72 Bohr mag/cell

     iteration #  2     ecut=    60.00 Ry     beta= 0.10
     Davidson diagonalization with overlap

---- Real-time Memory Report at c_bands before calling an iterative solver
          2500 MiB given to the printing process from OS
         -1650 MiB allocation reported by mallinfo(arena+hblkhd)
         25997 MiB available memory on the node where the printing process lives
------------------
     ethr =  1.00E-02,  avg # of iterations =  1.0

     negative rho (up, down):  1.061E-02 8.741E-03

     total cpu time spent up to now is     1616.0 secs

     total energy              =   -1536.37708047 Ry
     estimated scf accuracy    <      33.83994430 Ry

     total magnetization       =     0.00 Bohr mag/cell
     absolute magnetization    =    21.76 Bohr mag/cell

     iteration #  3     ecut=    60.00 Ry     beta= 0.10
     Davidson diagonalization with overlap

---- Real-time Memory Report at c_bands before calling an iterative solver
          2615 MiB given to the printing process from OS
         -1621 MiB allocation reported by mallinfo(arena+hblkhd)
         25979 MiB available memory on the node where the printing process lives
------------------
     ethr =  1.00E-02,  avg # of iterations =  5.7

     negative rho (up, down):  4.203E-03 3.613E-03

     total cpu time spent up to now is     2329.4 secs

     total energy              =   -1542.10019160 Ry
     estimated scf accuracy    <       5.77587064 Ry

     total magnetization       =     0.00 Bohr mag/cell
     absolute magnetization    =    14.85 Bohr mag/cell

     iteration #  4     ecut=    60.00 Ry     beta= 0.10
     Davidson diagonalization with overlap

---- Real-time Memory Report at c_bands before calling an iterative solver
          2645 MiB given to the printing process from OS
         -1591 MiB allocation reported by mallinfo(arena+hblkhd)
         25797 MiB available memory on the node where the printing process lives
------------------
     ethr =  3.01E-03,  avg # of iterations =  3.7

     negative rho (up, down):  5.230E-03 4.520E-03

     total cpu time spent up to now is     2857.5 secs

     total energy              =   -1542.63458396 Ry
     estimated scf accuracy    <       5.22493935 Ry

     total magnetization       =    -0.00 Bohr mag/cell
     absolute magnetization    =    14.61 Bohr mag/cell

     iteration #  5     ecut=    60.00 Ry     beta= 0.10
     Davidson diagonalization with overlap

---- Real-time Memory Report at c_bands before calling an iterative solver
          2674 MiB given to the printing process from OS
         -1562 MiB allocation reported by mallinfo(arena+hblkhd)
         25837 MiB available memory on the node where the printing process lives
------------------
     ethr =  2.72E-03,  avg # of iterations =  5.6

     negative rho (up, down):  1.690E-05 1.584E-05

     total cpu time spent up to now is     3394.2 secs

     total energy              =   -1540.41734634 Ry
     estimated scf accuracy    <       9.74092467 Ry

     total magnetization       =    -0.00 Bohr mag/cell
     absolute magnetization    =    13.28 Bohr mag/cell

     iteration #  6     ecut=    60.00 Ry     beta= 0.10
     Davidson diagonalization with overlap

---- Real-time Memory Report at c_bands before calling an iterative solver
          2704 MiB given to the printing process from OS
         -1532 MiB allocation reported by mallinfo(arena+hblkhd)
         25685 MiB available memory on the node where the printing process lives
------------------
     ethr =  2.72E-03,  avg # of iterations =  7.2

     negative rho (up, down):  9.544E-04 8.110E-04

     total cpu time spent up to now is     4132.2 secs

     total energy              =   -1542.38205830 Ry
     estimated scf accuracy    <       9.07969395 Ry

     total magnetization       =     0.00 Bohr mag/cell
     absolute magnetization    =    12.09 Bohr mag/cell

     iteration #  7     ecut=    60.00 Ry     beta= 0.10
     Davidson diagonalization with overlap

---- Real-time Memory Report at c_bands before calling an iterative solver
          2733 MiB given to the printing process from OS
         -1503 MiB allocation reported by mallinfo(arena+hblkhd)
         25512 MiB available memory on the node where the printing process lives
------------------
     ethr =  2.72E-03,  avg # of iterations =  2.0

     negative rho (up, down):  5.587E-04 4.643E-04

     total cpu time spent up to now is     4617.9 secs

     total energy              =   -1542.99556321 Ry
     estimated scf accuracy    <       5.26158636 Ry

     total magnetization       =    -0.00 Bohr mag/cell
     absolute magnetization    =    11.98 Bohr mag/cell

     iteration #  8     ecut=    60.00 Ry     beta= 0.10
     Davidson diagonalization with overlap

---- Real-time Memory Report at c_bands before calling an iterative solver
          2763 MiB given to the printing process from OS
         -1473 MiB allocation reported by mallinfo(arena+hblkhd)
         25412 MiB available memory on the node where the printing process lives
------------------
     ethr =  2.72E-03,  avg # of iterations =  1.0

     negative rho (up, down):  5.049E-04 4.160E-04

     total cpu time spent up to now is     5073.7 secs

     total energy              =   -1543.95251590 Ry
     estimated scf accuracy    <       6.75920348 Ry

     total magnetization       =     0.00 Bohr mag/cell
     absolute magnetization    =    11.74 Bohr mag/cell

     iteration #  9     ecut=    60.00 Ry     beta= 0.10
     Davidson diagonalization with overlap

---- Real-time Memory Report at c_bands before calling an iterative solver
          2792 MiB given to the printing process from OS
         -1444 MiB allocation reported by mallinfo(arena+hblkhd)
         25286 MiB available memory on the node where the printing process lives
------------------
     ethr =  2.72E-03,  avg # of iterations =  2.1

     negative rho (up, down):  2.720E-05 2.687E-05

     total cpu time spent up to now is     5570.7 secs

     total energy              =   -1540.93937255 Ry
     estimated scf accuracy    <      11.84069914 Ry

     total magnetization       =    -0.00 Bohr mag/cell
     absolute magnetization    =    11.42 Bohr mag/cell

     iteration # 10     ecut=    60.00 Ry     beta= 0.10
     Davidson diagonalization with overlap

---- Real-time Memory Report at c_bands before calling an iterative solver
          2822 MiB given to the printing process from OS
         -1415 MiB allocation reported by mallinfo(arena+hblkhd)
         25279 MiB available memory on the node where the printing process lives
------------------
     ethr =  2.72E-03,  avg # of iterations =  8.7

     negative rho (up, down):  2.023E-05 1.907E-05

     total cpu time spent up to now is     6251.7 secs

     total energy              =   -1542.26643671 Ry
     estimated scf accuracy    <      10.98677112 Ry

     total magnetization       =    -0.00 Bohr mag/cell
     absolute magnetization    =     8.68 Bohr mag/cell

     iteration # 11     ecut=    60.00 Ry     beta= 0.10
     Davidson diagonalization with overlap

---- Real-time Memory Report at c_bands before calling an iterative solver
          2851 MiB given to the printing process from OS
         -1415 MiB allocation reported by mallinfo(arena+hblkhd)
         24968 MiB available memory on the node where the printing process lives
------------------
     ethr =  2.72E-03,  avg # of iterations =  1.3

     negative rho (up, down):  6.088E-06 6.001E-06

     total cpu time spent up to now is     6729.2 secs

     total energy              =   -1541.52025174 Ry
     estimated scf accuracy    <       8.38500933 Ry

     total magnetization       =     0.00 Bohr mag/cell
     absolute magnetization    =     8.55 Bohr mag/cell

     iteration # 12     ecut=    60.00 Ry     beta= 0.10
     Davidson diagonalization with overlap

---- Real-time Memory Report at c_bands before calling an iterative solver
          2851 MiB given to the printing process from OS
         -1415 MiB allocation reported by mallinfo(arena+hblkhd)
         25110 MiB available memory on the node where the printing process lives
------------------
     ethr =  2.72E-03,  avg # of iterations =  6.8

     negative rho (up, down):  3.650E-06 3.577E-06

     total cpu time spent up to now is     7384.6 secs

     total energy              =   -1542.57197573 Ry
     estimated scf accuracy    <       3.53315569 Ry

     total magnetization       =    -0.00 Bohr mag/cell
     absolute magnetization    =     9.27 Bohr mag/cell

     iteration # 13     ecut=    60.00 Ry     beta= 0.10
     Davidson diagonalization with overlap

---- Real-time Memory Report at c_bands before calling an iterative solver
          2851 MiB given to the printing process from OS
         -1415 MiB allocation reported by mallinfo(arena+hblkhd)
         24799 MiB available memory on the node where the printing process lives
------------------
     ethr =  1.84E-03,  avg # of iterations =  1.0

     negative rho (up, down):  4.419E-05 2.112E-05

     total cpu time spent up to now is     7857.9 secs

     total energy              =   -1543.49707612 Ry
     estimated scf accuracy    <       3.47491612 Ry

     total magnetization       =     0.00 Bohr mag/cell
     absolute magnetization    =     9.28 Bohr mag/cell

     iteration # 14     ecut=    60.00 Ry     beta= 0.10
     Davidson diagonalization with overlap

---- Real-time Memory Report at c_bands before calling an iterative solver
          2851 MiB given to the printing process from OS
         -1415 MiB allocation reported by mallinfo(arena+hblkhd)
         24814 MiB available memory on the node where the printing process lives
------------------
     ethr =  1.81E-03,  avg # of iterations =  8.9

     negative rho (up, down):  2.430E-07 2.464E-07

     total cpu time spent up to now is     8572.4 secs

     total energy              =   -1541.69291954 Ry
     estimated scf accuracy    <      40.02105309 Ry

     total magnetization       =     0.00 Bohr mag/cell
     absolute magnetization    =     4.49 Bohr mag/cell

     iteration # 15     ecut=    60.00 Ry     beta= 0.10
     Davidson diagonalization with overlap

---- Real-time Memory Report at c_bands before calling an iterative solver
          2851 MiB given to the printing process from OS
         -1415 MiB allocation reported by mallinfo(arena+hblkhd)
         24587 MiB available memory on the node where the printing process lives
------------------
     ethr =  1.81E-03,  avg # of iterations =  8.1

     negative rho (up, down):  2.505E-07 2.515E-07

     total cpu time spent up to now is     9230.0 secs

     total energy              =   -1542.16197982 Ry
     estimated scf accuracy    <       8.46846643 Ry

     total magnetization       =     0.00 Bohr mag/cell
     absolute magnetization    =     9.89 Bohr mag/cell

     iteration # 16     ecut=    60.00 Ry     beta= 0.10
     Davidson diagonalization with overlap

---- Real-time Memory Report at c_bands before calling an iterative solver
          2851 MiB given to the printing process from OS
         -1415 MiB allocation reported by mallinfo(arena+hblkhd)
         24461 MiB available memory on the node where the printing process lives
------------------
     ethr =  1.81E-03,  avg # of iterations =  1.2

     negative rho (up, down):  4.049E-07 4.057E-07

     total cpu time spent up to now is     9712.9 secs

     total energy              =   -1541.94925725 Ry
     estimated scf accuracy    <       6.47344016 Ry

     total magnetization       =    -0.00 Bohr mag/cell
     absolute magnetization    =    10.00 Bohr mag/cell

     iteration # 17     ecut=    60.00 Ry     beta= 0.10
     Davidson diagonalization with overlap

---- Real-time Memory Report at c_bands before calling an iterative solver
          2851 MiB given to the printing process from OS
         -1415 MiB allocation reported by mallinfo(arena+hblkhd)
         24345 MiB available memory on the node where the printing process lives
------------------
     ethr =  1.81E-03,  avg # of iterations =  3.2

     negative rho (up, down):  4.622E-07 4.611E-07

     total cpu time spent up to now is    10212.6 secs

     total energy              =   -1542.02013638 Ry
     estimated scf accuracy    <       4.00202245 Ry

     total magnetization       =    -0.00 Bohr mag/cell
     absolute magnetization    =    10.00 Bohr mag/cell

     iteration # 18     ecut=    60.00 Ry     beta= 0.10
     Davidson diagonalization with overlap

---- Real-time Memory Report at c_bands before calling an iterative solver
          2851 MiB given to the printing process from OS
         -1415 MiB allocation reported by mallinfo(arena+hblkhd)
         24396 MiB available memory on the node where the printing process lives
------------------
     ethr =  1.81E-03,  avg # of iterations =  1.0

     negative rho (up, down):  8.108E-07 7.677E-07

     total cpu time spent up to now is    10688.0 secs

     total energy              =   -1542.33435264 Ry
     estimated scf accuracy    <       3.40226140 Ry

     total magnetization       =     0.00 Bohr mag/cell
     absolute magnetization    =    10.05 Bohr mag/cell

     iteration # 19     ecut=    60.00 Ry     beta= 0.10
     Davidson diagonalization with overlap

---- Real-time Memory Report at c_bands before calling an iterative solver
          2851 MiB given to the printing process from OS
         -1415 MiB allocation reported by mallinfo(arena+hblkhd)
         24303 MiB available memory on the node where the printing process lives
------------------
     ethr =  1.77E-03,  avg # of iterations =  1.3

     negative rho (up, down):  2.240E-06 2.049E-06

     total cpu time spent up to now is    11166.5 secs

     total energy              =   -1541.70782516 Ry
     estimated scf accuracy    <       4.44222195 Ry

     total magnetization       =     0.00 Bohr mag/cell
     absolute magnetization    =    10.06 Bohr mag/cell

     iteration # 20     ecut=    60.00 Ry     beta= 0.10
     Davidson diagonalization with overlap

---- Real-time Memory Report at c_bands before calling an iterative solver
          2851 MiB given to the printing process from OS
         -1415 MiB allocation reported by mallinfo(arena+hblkhd)
         24151 MiB available memory on the node where the printing process lives
------------------
     ethr =  1.77E-03,  avg # of iterations = 11.5

     negative rho (up, down):  2.456E-06 2.240E-06

     total cpu time spent up to now is    11854.6 secs

     total energy              =   -1542.72465156 Ry
     estimated scf accuracy    <      12.48553756 Ry

     total magnetization       =    -0.00 Bohr mag/cell
     absolute magnetization    =     6.22 Bohr mag/cell

     iteration # 21     ecut=    60.00 Ry     beta= 0.10
     Davidson diagonalization with overlap

---- Real-time Memory Report at c_bands before calling an iterative solver
          2851 MiB given to the printing process from OS
         -1415 MiB allocation reported by mallinfo(arena+hblkhd)
         24057 MiB available memory on the node where the printing process lives
------------------
     ethr =  1.77E-03,  avg # of iterations =  1.0

     negative rho (up, down):  2.392E-06 2.164E-06

     total cpu time spent up to now is    12332.6 secs

     total energy              =   -1542.62721484 Ry
     estimated scf accuracy    <      12.69063713 Ry

     total magnetization       =     0.00 Bohr mag/cell
     absolute magnetization    =     6.24 Bohr mag/cell

     iteration # 22     ecut=    60.00 Ry     beta= 0.10
     Davidson diagonalization with overlap

---- Real-time Memory Report at c_bands before calling an iterative solver
          2851 MiB given to the printing process from OS
         -1415 MiB allocation reported by mallinfo(arena+hblkhd)
         24090 MiB available memory on the node where the printing process lives
------------------
     ethr =  1.77E-03,  avg # of iterations =  1.0

     negative rho (up, down):  5.040E-06 4.644E-06

     total cpu time spent up to now is    12799.7 secs

     total energy              =   -1543.17972604 Ry
     estimated scf accuracy    <      12.27520512 Ry

     total magnetization       =     0.00 Bohr mag/cell
     absolute magnetization    =     6.27 Bohr mag/cell

     iteration # 23     ecut=    60.00 Ry     beta= 0.10
     Davidson diagonalization with overlap

---- Real-time Memory Report at c_bands before calling an iterative solver
          2851 MiB given to the printing process from OS
         -1415 MiB allocation reported by mallinfo(arena+hblkhd)
         24122 MiB available memory on the node where the printing process lives
------------------
     ethr =  1.77E-03,  avg # of iterations =  3.3

     negative rho (up, down):  2.416E-06 2.211E-06

     total cpu time spent up to now is    13293.8 secs

     total energy              =   -1542.17441402 Ry
     estimated scf accuracy    <      16.83669543 Ry

     total magnetization       =    -0.00 Bohr mag/cell
     absolute magnetization    =     6.10 Bohr mag/cell

     iteration # 24     ecut=    60.00 Ry     beta= 0.10
     Davidson diagonalization with overlap

---- Real-time Memory Report at c_bands before calling an iterative solver
          2851 MiB given to the printing process from OS
         -1415 MiB allocation reported by mallinfo(arena+hblkhd)
         24084 MiB available memory on the node where the printing process lives
------------------
     ethr =  1.77E-03,  avg # of iterations =  4.6

     negative rho (up, down):  1.387E-06 1.252E-06

     total cpu time spent up to now is    13776.2 secs

     total energy              =   -1541.97526015 Ry
     estimated scf accuracy    <      12.20329716 Ry

     total magnetization       =     0.00 Bohr mag/cell
     absolute magnetization    =     6.46 Bohr mag/cell

     iteration # 25     ecut=    60.00 Ry     beta= 0.10
     Davidson diagonalization with overlap

---- Real-time Memory Report at c_bands before calling an iterative solver
          2851 MiB given to the printing process from OS
         -1415 MiB allocation reported by mallinfo(arena+hblkhd)
         24093 MiB available memory on the node where the printing process lives
------------------
     ethr =  1.77E-03,  avg # of iterations =  2.2

     negative rho (up, down):  1.370E-06 1.230E-06

     total cpu time spent up to now is    14245.7 secs

     total energy              =   -1541.90278882 Ry
     estimated scf accuracy    <       9.36711381 Ry

     total magnetization       =     0.00 Bohr mag/cell
     absolute magnetization    =     6.54 Bohr mag/cell

     iteration # 26     ecut=    60.00 Ry     beta= 0.10
     Davidson diagonalization with overlap

---- Real-time Memory Report at c_bands before calling an iterative solver
          2851 MiB given to the printing process from OS
         -1415 MiB allocation reported by mallinfo(arena+hblkhd)
         25528 MiB available memory on the node where the printing process lives
------------------
     ethr =  1.77E-03,  avg # of iterations =  2.3

     negative rho (up, down):  2.826E-06 2.672E-06

     total cpu time spent up to now is    14707.5 secs

     total energy              =   -1541.60402262 Ry
     estimated scf accuracy    <       7.44770258 Ry

     total magnetization       =     0.00 Bohr mag/cell
     absolute magnetization    =     6.64 Bohr mag/cell

     iteration # 27     ecut=    60.00 Ry     beta= 0.10
     Davidson diagonalization with overlap

---- Real-time Memory Report at c_bands before calling an iterative solver
          2851 MiB given to the printing process from OS
         -1415 MiB allocation reported by mallinfo(arena+hblkhd)
         25427 MiB available memory on the node where the printing process lives
------------------
     ethr =  1.77E-03,  avg # of iterations =  7.8

     negative rho (up, down):  1.135E-06 1.077E-06

     total cpu time spent up to now is    15356.7 secs

     total energy              =   -1542.25723823 Ry
     estimated scf accuracy    <       2.99542703 Ry

     total magnetization       =     0.00 Bohr mag/cell
     absolute magnetization    =     8.77 Bohr mag/cell

     iteration # 28     ecut=    60.00 Ry     beta= 0.10
     Davidson diagonalization with overlap

---- Real-time Memory Report at c_bands before calling an iterative solver
          2851 MiB given to the printing process from OS
         -1415 MiB allocation reported by mallinfo(arena+hblkhd)
         25448 MiB available memory on the node where the printing process lives
------------------
     ethr =  1.56E-03,  avg # of iterations =  1.4

     negative rho (up, down):  9.621E-07 9.047E-07

     total cpu time spent up to now is    15810.0 secs

     total energy              =   -1542.22897023 Ry
     estimated scf accuracy    <       1.84814237 Ry

     total magnetization       =    -0.00 Bohr mag/cell
     absolute magnetization    =     9.10 Bohr mag/cell

     iteration # 29     ecut=    60.00 Ry     beta= 0.10
     Davidson diagonalization with overlap

---- Real-time Memory Report at c_bands before calling an iterative solver
          2851 MiB given to the printing process from OS
         -1415 MiB allocation reported by mallinfo(arena+hblkhd)
         25491 MiB available memory on the node where the printing process lives
------------------
     ethr =  9.63E-04,  avg # of iterations =  1.6

     negative rho (up, down):  5.657E-06 4.310E-06

     total cpu time spent up to now is    16268.9 secs

     total energy              =   -1542.10966635 Ry
     estimated scf accuracy    <       1.35880250 Ry

     total magnetization       =     0.00 Bohr mag/cell
     absolute magnetization    =     9.15 Bohr mag/cell

     iteration # 30     ecut=    60.00 Ry     beta= 0.10
     Davidson diagonalization with overlap

---- Real-time Memory Report at c_bands before calling an iterative solver
          2851 MiB given to the printing process from OS
         -1415 MiB allocation reported by mallinfo(arena+hblkhd)
         25473 MiB available memory on the node where the printing process lives
------------------
     ethr =  7.08E-04,  avg # of iterations = 10.4

     negative rho (up, down):  1.239E-06 1.161E-06

     total cpu time spent up to now is    16928.7 secs

     total energy              =   -1542.02764444 Ry
     estimated scf accuracy    <       3.29024372 Ry

     total magnetization       =     0.00 Bohr mag/cell
     absolute magnetization    =     6.97 Bohr mag/cell

     iteration # 31     ecut=    60.00 Ry     beta= 0.10
     Davidson diagonalization with overlap

---- Real-time Memory Report at c_bands before calling an iterative solver
          2851 MiB given to the printing process from OS
         -1415 MiB allocation reported by mallinfo(arena+hblkhd)
         25472 MiB available memory on the node where the printing process lives
------------------
     ethr =  7.08E-04,  avg # of iterations =  8.3

     negative rho (up, down):  1.776E-06 1.090E-06

     total cpu time spent up to now is    17593.9 secs

     total energy              =   -1542.45507303 Ry
     estimated scf accuracy    <       1.47408263 Ry

     total magnetization       =     0.00 Bohr mag/cell
     absolute magnetization    =     7.97 Bohr mag/cell

     iteration # 32     ecut=    60.00 Ry     beta= 0.10
     Davidson diagonalization with overlap

---- Real-time Memory Report at c_bands before calling an iterative solver
          2851 MiB given to the printing process from OS
         -1415 MiB allocation reported by mallinfo(arena+hblkhd)
         25388 MiB available memory on the node where the printing process lives
------------------
     ethr =  7.08E-04,  avg # of iterations =  1.0

     negative rho (up, down):  1.446E-05 1.265E-05

     total cpu time spent up to now is    18054.1 secs

     total energy              =   -1542.39471815 Ry
     estimated scf accuracy    <       1.73350283 Ry

     total magnetization       =     0.00 Bohr mag/cell
     absolute magnetization    =     7.85 Bohr mag/cell

     iteration # 33     ecut=    60.00 Ry     beta= 0.10
     Davidson diagonalization with overlap

---- Real-time Memory Report at c_bands before calling an iterative solver
          2851 MiB given to the printing process from OS
         -1415 MiB allocation reported by mallinfo(arena+hblkhd)
         25458 MiB available memory on the node where the printing process lives
------------------
     ethr =  7.08E-04,  avg # of iterations =  1.0

     negative rho (up, down):  1.515E-05 1.327E-05

     total cpu time spent up to now is    18534.8 secs

     total energy              =   -1542.36974203 Ry
     estimated scf accuracy    <       1.50341128 Ry

     total magnetization       =    -0.00 Bohr mag/cell
     absolute magnetization    =     7.76 Bohr mag/cell

     iteration # 34     ecut=    60.00 Ry     beta= 0.10
     Davidson diagonalization with overlap

---- Real-time Memory Report at c_bands before calling an iterative solver
          2851 MiB given to the printing process from OS
         -1415 MiB allocation reported by mallinfo(arena+hblkhd)
         25478 MiB available memory on the node where the printing process lives
------------------
     ethr =  7.08E-04,  avg # of iterations =  1.0

     negative rho (up, down):  2.559E-05 2.088E-05

     total cpu time spent up to now is    19002.1 secs

     total energy              =   -1542.47314316 Ry
     estimated scf accuracy    <       1.29634412 Ry

     total magnetization       =    -0.00 Bohr mag/cell
     absolute magnetization    =     7.77 Bohr mag/cell

     iteration # 35     ecut=    60.00 Ry     beta= 0.10
     Davidson diagonalization with overlap

---- Real-time Memory Report at c_bands before calling an iterative solver
          2851 MiB given to the printing process from OS
         -1415 MiB allocation reported by mallinfo(arena+hblkhd)
         25567 MiB available memory on the node where the printing process lives
------------------
     ethr =  6.75E-04,  avg # of iterations =  1.0

     negative rho (up, down):  1.599E-04 4.154E-05

     total cpu time spent up to now is    19447.9 secs

     total energy              =   -1542.43228852 Ry
     estimated scf accuracy    <       1.82707793 Ry

     total magnetization       =     0.00 Bohr mag/cell
     absolute magnetization    =     7.64 Bohr mag/cell

     iteration # 36     ecut=    60.00 Ry     beta= 0.10
     Davidson diagonalization with overlap

---- Real-time Memory Report at c_bands before calling an iterative solver
          2851 MiB given to the printing process from OS
         -1415 MiB allocation reported by mallinfo(arena+hblkhd)
         25394 MiB available memory on the node where the printing process lives
------------------
     ethr =  6.75E-04,  avg # of iterations =  1.0

     negative rho (up, down):  2.404E-04 2.256E-05

     total cpu time spent up to now is    19900.0 secs

     total energy              =   -1542.39300661 Ry
     estimated scf accuracy    <       1.71960027 Ry

     total magnetization       =     0.00 Bohr mag/cell
     absolute magnetization    =     7.60 Bohr mag/cell

     iteration # 37     ecut=    60.00 Ry     beta= 0.10
     Davidson diagonalization with overlap

---- Real-time Memory Report at c_bands before calling an iterative solver
          2851 MiB given to the printing process from OS
         -1415 MiB allocation reported by mallinfo(arena+hblkhd)
         25491 MiB available memory on the node where the printing process lives
------------------
     ethr =  6.75E-04,  avg # of iterations =  1.0

     negative rho (up, down):  1.857E-04 4.351E-05

     total cpu time spent up to now is    20367.5 secs

     total energy              =   -1542.48885721 Ry
     estimated scf accuracy    <       1.49089426 Ry

     total magnetization       =     0.00 Bohr mag/cell
     absolute magnetization    =     7.57 Bohr mag/cell

     iteration # 38     ecut=    60.00 Ry     beta= 0.10
     Davidson diagonalization with overlap

---- Real-time Memory Report at c_bands before calling an iterative solver
          2851 MiB given to the printing process from OS
         -1415 MiB allocation reported by mallinfo(arena+hblkhd)
         25487 MiB available memory on the node where the printing process lives
------------------
     ethr =  6.75E-04,  avg # of iterations =  1.0

     negative rho (up, down):  7.259E-05 4.324E-05

     total cpu time spent up to now is    20821.7 secs

     total energy              =   -1542.46952767 Ry
     estimated scf accuracy    <       2.01922503 Ry

     total magnetization       =    -0.00 Bohr mag/cell
     absolute magnetization    =     7.50 Bohr mag/cell

     iteration # 39     ecut=    60.00 Ry     beta= 0.10
     Davidson diagonalization with overlap

---- Real-time Memory Report at c_bands before calling an iterative solver
          2851 MiB given to the printing process from OS
         -1415 MiB allocation reported by mallinfo(arena+hblkhd)
         25471 MiB available memory on the node where the printing process lives
------------------
     ethr =  6.75E-04,  avg # of iterations =  1.0

     negative rho (up, down):  2.516E-03 1.099E-05

     total cpu time spent up to now is    21290.8 secs

     total energy              =   -1541.84636311 Ry
     estimated scf accuracy    <       1.97976841 Ry

     total magnetization       =     0.00 Bohr mag/cell
     absolute magnetization    =     7.54 Bohr mag/cell

     iteration # 40     ecut=    60.00 Ry     beta= 0.10
     Davidson diagonalization with overlap

---- Real-time Memory Report at c_bands before calling an iterative solver
          2851 MiB given to the printing process from OS
         -1415 MiB allocation reported by mallinfo(arena+hblkhd)
         25395 MiB available memory on the node where the printing process lives
------------------
     ethr =  6.75E-04,  avg # of iterations = 13.1

     negative rho (up, down):  4.300E-05 3.748E-05

     total cpu time spent up to now is    22149.0 secs

     total energy              =   -1541.60890651 Ry
     estimated scf accuracy    <      24.16113278 Ry

     total magnetization       =    -0.00 Bohr mag/cell
     absolute magnetization    =     4.18 Bohr mag/cell

     iteration # 41     ecut=    60.00 Ry     beta= 0.10
     Davidson diagonalization with overlap

---- Real-time Memory Report at c_bands before calling an iterative solver
          2851 MiB given to the printing process from OS
         -1415 MiB allocation reported by mallinfo(arena+hblkhd)
         25410 MiB available memory on the node where the printing process lives
------------------
     ethr =  6.75E-04,  avg # of iterations = 12.9

     negative rho (up, down):  3.818E-05 3.306E-05

     total cpu time spent up to now is    22996.4 secs

     total energy              =   -1542.35731513 Ry
     estimated scf accuracy    <       0.51051028 Ry

     total magnetization       =     0.00 Bohr mag/cell
     absolute magnetization    =     6.66 Bohr mag/cell

     iteration # 42     ecut=    60.00 Ry     beta= 0.10
     Davidson diagonalization with overlap

---- Real-time Memory Report at c_bands before calling an iterative solver
          2851 MiB given to the printing process from OS
         -1415 MiB allocation reported by mallinfo(arena+hblkhd)
         25388 MiB available memory on the node where the printing process lives
------------------
     ethr =  2.66E-04,  avg # of iterations =  1.8

     negative rho (up, down):  2.958E-05 2.565E-05

     total cpu time spent up to now is    23462.0 secs

     total energy              =   -1542.34940367 Ry
     estimated scf accuracy    <       0.45903213 Ry

     total magnetization       =    -0.00 Bohr mag/cell
     absolute magnetization    =     6.66 Bohr mag/cell

     iteration # 43     ecut=    60.00 Ry     beta= 0.10
     Davidson diagonalization with overlap

---- Real-time Memory Report at c_bands before calling an iterative solver
          2851 MiB given to the printing process from OS
         -1415 MiB allocation reported by mallinfo(arena+hblkhd)
         25384 MiB available memory on the node where the printing process lives
------------------
     ethr =  2.39E-04,  avg # of iterations =  1.5

     negative rho (up, down):  1.051E-05 9.773E-06

     total cpu time spent up to now is    23910.8 secs

     total energy              =   -1542.33998257 Ry
     estimated scf accuracy    <       0.36565026 Ry

     total magnetization       =    -0.00 Bohr mag/cell
     absolute magnetization    =     6.63 Bohr mag/cell

     iteration # 44     ecut=    60.00 Ry     beta= 0.10
     Davidson diagonalization with overlap

---- Real-time Memory Report at c_bands before calling an iterative solver
          2851 MiB given to the printing process from OS
         -1415 MiB allocation reported by mallinfo(arena+hblkhd)
         25485 MiB available memory on the node where the printing process lives
------------------
     ethr =  1.90E-04,  avg # of iterations =  9.1

     negative rho (up, down):  1.094E-05 1.025E-05

     total cpu time spent up to now is    24491.2 secs

     total energy              =   -1542.33790554 Ry
     estimated scf accuracy    <       0.54697003 Ry

     total magnetization       =    -0.00 Bohr mag/cell
     absolute magnetization    =     6.10 Bohr mag/cell

     iteration # 45     ecut=    60.00 Ry     beta= 0.10
     Davidson diagonalization with overlap

---- Real-time Memory Report at c_bands before calling an iterative solver
          2851 MiB given to the printing process from OS
         -1415 MiB allocation reported by mallinfo(arena+hblkhd)
         25484 MiB available memory on the node where the printing process lives
------------------
     ethr =  1.90E-04,  avg # of iterations =  1.8

     negative rho (up, down):  1.258E-05 3.817E-06

     total cpu time spent up to now is    24972.5 secs

     total energy              =   -1542.33384318 Ry
     estimated scf accuracy    <       0.33201713 Ry

     total magnetization       =     0.00 Bohr mag/cell
     absolute magnetization    =     6.06 Bohr mag/cell

     iteration # 46     ecut=    60.00 Ry     beta= 0.10
     Davidson diagonalization with overlap

---- Real-time Memory Report at c_bands before calling an iterative solver
          2851 MiB given to the printing process from OS
         -1415 MiB allocation reported by mallinfo(arena+hblkhd)
         25482 MiB available memory on the node where the printing process lives
------------------
     c_bands:  1 eigenvalues not converged
     ethr =  1.73E-04,  avg # of iterations =  6.8

     total cpu time spent up to now is    25489.7 secs

     total energy              =   -1542.35053172 Ry
     estimated scf accuracy    <       0.19394968 Ry

     total magnetization       =    -0.00 Bohr mag/cell
     absolute magnetization    =     5.94 Bohr mag/cell

     iteration # 47     ecut=    60.00 Ry     beta= 0.10
     Davidson diagonalization with overlap

---- Real-time Memory Report at c_bands before calling an iterative solver
          2851 MiB given to the printing process from OS
         -1415 MiB allocation reported by mallinfo(arena+hblkhd)
         25582 MiB available memory on the node where the printing process lives
------------------
     ethr =  1.01E-04,  avg # of iterations =  8.1

     total cpu time spent up to now is    26036.0 secs

     total energy              =   -1542.35730421 Ry
     estimated scf accuracy    <       0.21694324 Ry

     total magnetization       =     0.00 Bohr mag/cell
     absolute magnetization    =     5.96 Bohr mag/cell

     iteration # 48     ecut=    60.00 Ry     beta= 0.10
     Davidson diagonalization with overlap

---- Real-time Memory Report at c_bands before calling an iterative solver
          2851 MiB given to the printing process from OS
         -1415 MiB allocation reported by mallinfo(arena+hblkhd)
         25495 MiB available memory on the node where the printing process lives
------------------
     ethr =  1.01E-04,  avg # of iterations =  1.4

     negative rho (up, down):  7.117E-06 1.007E-07

     total cpu time spent up to now is    26490.9 secs

     total energy              =   -1542.38207966 Ry
     estimated scf accuracy    <       0.18946800 Ry

     total magnetization       =     0.00 Bohr mag/cell
     absolute magnetization    =     5.87 Bohr mag/cell

     iteration # 49     ecut=    60.00 Ry     beta= 0.10
     Davidson diagonalization with overlap

---- Real-time Memory Report at c_bands before calling an iterative solver
          2851 MiB given to the printing process from OS
         -1415 MiB allocation reported by mallinfo(arena+hblkhd)
         25467 MiB available memory on the node where the printing process lives
------------------
     c_bands:  1 eigenvalues not converged
     c_bands:  1 eigenvalues not converged
     ethr =  9.87E-05,  avg # of iterations = 11.7

     negative rho (up, down):  1.691E-05 2.711E-07

     total cpu time spent up to now is    27288.5 secs

     total energy              =   -1542.41880080 Ry
     estimated scf accuracy    <       2.12968021 Ry

     total magnetization       =    -0.00 Bohr mag/cell
     absolute magnetization    =     5.98 Bohr mag/cell

     iteration # 50     ecut=    60.00 Ry     beta= 0.10
     Davidson diagonalization with overlap

---- Real-time Memory Report at c_bands before calling an iterative solver
          2851 MiB given to the printing process from OS
         -1415 MiB allocation reported by mallinfo(arena+hblkhd)
         25568 MiB available memory on the node where the printing process lives
------------------
     ethr =  9.87E-05,  avg # of iterations =  1.8

     negative rho (up, down):  8.735E-08 0.000E+00

     total cpu time spent up to now is    27751.9 secs

     total energy              =   -1542.43801414 Ry
     estimated scf accuracy    <       1.78115261 Ry

     total magnetization       =    -0.00 Bohr mag/cell
     absolute magnetization    =     6.02 Bohr mag/cell

     iteration # 51     ecut=    60.00 Ry     beta= 0.10
     Davidson diagonalization with overlap

---- Real-time Memory Report at c_bands before calling an iterative solver
          2851 MiB given to the printing process from OS
         -1415 MiB allocation reported by mallinfo(arena+hblkhd)
         25484 MiB available memory on the node where the printing process lives
------------------
     ethr =  9.87E-05,  avg # of iterations =  1.0

     total cpu time spent up to now is    28201.9 secs

     total energy              =   -1542.48766589 Ry
     estimated scf accuracy    <       1.82557985 Ry

     total magnetization       =     0.00 Bohr mag/cell
     absolute magnetization    =     6.03 Bohr mag/cell

     iteration # 52     ecut=    60.00 Ry     beta= 0.10
     Davidson diagonalization with overlap

---- Real-time Memory Report at c_bands before calling an iterative solver
          2851 MiB given to the printing process from OS
         -1415 MiB allocation reported by mallinfo(arena+hblkhd)
         25383 MiB available memory on the node where the printing process lives
------------------
     ethr =  9.87E-05,  avg # of iterations =  1.6

     total cpu time spent up to now is    28681.1 secs

     total energy              =   -1542.41897381 Ry
     estimated scf accuracy    <       2.16863993 Ry

     total magnetization       =     0.00 Bohr mag/cell
     absolute magnetization    =     5.99 Bohr mag/cell

     iteration # 53     ecut=    60.00 Ry     beta= 0.10
     Davidson diagonalization with overlap

---- Real-time Memory Report at c_bands before calling an iterative solver
          2851 MiB given to the printing process from OS
         -1415 MiB allocation reported by mallinfo(arena+hblkhd)
         25487 MiB available memory on the node where the printing process lives
------------------
     ethr =  9.87E-05,  avg # of iterations =  9.4

     total cpu time spent up to now is    29300.3 secs

     total energy              =   -1542.30421945 Ry
     estimated scf accuracy    <       2.15172974 Ry

     total magnetization       =    -0.00 Bohr mag/cell
     absolute magnetization    =     5.87 Bohr mag/cell

     iteration # 54     ecut=    60.00 Ry     beta= 0.10
     Davidson diagonalization with overlap

---- Real-time Memory Report at c_bands before calling an iterative solver
          2851 MiB given to the printing process from OS
         -1415 MiB allocation reported by mallinfo(arena+hblkhd)
         25404 MiB available memory on the node where the printing process lives
------------------
     ethr =  9.87E-05,  avg # of iterations =  8.8

     total cpu time spent up to now is    29974.0 secs

     total energy              =   -1542.33042151 Ry
     estimated scf accuracy    <       0.43134663 Ry

     total magnetization       =    -0.00 Bohr mag/cell
     absolute magnetization    =     5.73 Bohr mag/cell

     iteration # 55     ecut=    60.00 Ry     beta= 0.10
     Davidson diagonalization with overlap

---- Real-time Memory Report at c_bands before calling an iterative solver
          2851 MiB given to the printing process from OS
         -1415 MiB allocation reported by mallinfo(arena+hblkhd)
         25417 MiB available memory on the node where the printing process lives
------------------
     ethr =  9.87E-05,  avg # of iterations =  9.3

     total cpu time spent up to now is    30599.3 secs

     total energy              =   -1542.36028417 Ry
     estimated scf accuracy    <       0.18650507 Ry

     total magnetization       =     0.00 Bohr mag/cell
     absolute magnetization    =     6.30 Bohr mag/cell

     iteration # 56     ecut=    60.00 Ry     beta= 0.10
     Davidson diagonalization with overlap

---- Real-time Memory Report at c_bands before calling an iterative solver
          2851 MiB given to the printing process from OS
         -1415 MiB allocation reported by mallinfo(arena+hblkhd)
         25391 MiB available memory on the node where the printing process lives
------------------
     ethr =  9.71E-05,  avg # of iterations =  1.1

     total cpu time spent up to now is    31068.0 secs

     total energy              =   -1542.35917628 Ry
     estimated scf accuracy    <       0.19031716 Ry

     total magnetization       =     0.00 Bohr mag/cell
     absolute magnetization    =     6.29 Bohr mag/cell

     iteration # 57     ecut=    60.00 Ry     beta= 0.10
     Davidson diagonalization with overlap

---- Real-time Memory Report at c_bands before calling an iterative solver
          2851 MiB given to the printing process from OS
         -1415 MiB allocation reported by mallinfo(arena+hblkhd)
         25400 MiB available memory on the node where the printing process lives
------------------
     ethr =  9.71E-05,  avg # of iterations =  1.1

     total cpu time spent up to now is    31532.5 secs

     total energy              =   -1542.36077164 Ry
     estimated scf accuracy    <       0.17882791 Ry

     total magnetization       =    -0.00 Bohr mag/cell
     absolute magnetization    =     6.32 Bohr mag/cell

     iteration # 58     ecut=    60.00 Ry     beta= 0.10
     Davidson diagonalization with overlap

---- Real-time Memory Report at c_bands before calling an iterative solver
          2851 MiB given to the printing process from OS
         -1415 MiB allocation reported by mallinfo(arena+hblkhd)
         25498 MiB available memory on the node where the printing process lives
------------------
     ethr =  9.31E-05,  avg # of iterations =  1.0

     total cpu time spent up to now is    31980.6 secs

     total energy              =   -1542.35419390 Ry
     estimated scf accuracy    <       0.18451446 Ry

     total magnetization       =     0.00 Bohr mag/cell
     absolute magnetization    =     6.28 Bohr mag/cell

     iteration # 59     ecut=    60.00 Ry     beta= 0.10
     Davidson diagonalization with overlap

---- Real-time Memory Report at c_bands before calling an iterative solver
          2851 MiB given to the printing process from OS
         -1415 MiB allocation reported by mallinfo(arena+hblkhd)
         25586 MiB available memory on the node where the printing process lives
------------------
     ethr =  9.31E-05,  avg # of iterations =  1.8

     total cpu time spent up to now is    32436.5 secs

     total energy              =   -1542.33800335 Ry
     estimated scf accuracy    <       0.13961634 Ry

     total magnetization       =     0.00 Bohr mag/cell
     absolute magnetization    =     6.27 Bohr mag/cell

     iteration # 60     ecut=    60.00 Ry     beta= 0.10
     Davidson diagonalization with overlap

---- Real-time Memory Report at c_bands before calling an iterative solver
          2851 MiB given to the printing process from OS
         -1415 MiB allocation reported by mallinfo(arena+hblkhd)
         25404 MiB available memory on the node where the printing process lives
------------------
     ethr =  7.27E-05,  avg # of iterations = 10.8

     total cpu time spent up to now is    33130.0 secs

     total energy              =   -1542.35261103 Ry
     estimated scf accuracy    <       0.53736815 Ry

     total magnetization       =    -0.00 Bohr mag/cell
     absolute magnetization    =     5.42 Bohr mag/cell

     iteration # 61     ecut=    60.00 Ry     beta= 0.10
     Davidson diagonalization with overlap

---- Real-time Memory Report at c_bands before calling an iterative solver
          2851 MiB given to the printing process from OS
         -1415 MiB allocation reported by mallinfo(arena+hblkhd)
         25586 MiB available memory on the node where the printing process lives
------------------
     ethr =  7.27E-05,  avg # of iterations =  2.0

     total cpu time spent up to now is    33602.0 secs

     total energy              =   -1542.34232852 Ry
     estimated scf accuracy    <       0.36463794 Ry

     total magnetization       =     0.00 Bohr mag/cell
     absolute magnetization    =     5.41 Bohr mag/cell

     iteration # 62     ecut=    60.00 Ry     beta= 0.10
     Davidson diagonalization with overlap

---- Real-time Memory Report at c_bands before calling an iterative solver
          2851 MiB given to the printing process from OS
         -1415 MiB allocation reported by mallinfo(arena+hblkhd)
         25408 MiB available memory on the node where the printing process lives
------------------
     ethr =  7.27E-05,  avg # of iterations =  2.5

     total cpu time spent up to now is    34087.1 secs

     total energy              =   -1542.31991716 Ry
     estimated scf accuracy    <       0.23168326 Ry

     total magnetization       =     0.00 Bohr mag/cell
     absolute magnetization    =     5.43 Bohr mag/cell

     iteration # 63     ecut=    60.00 Ry     beta= 0.10
     Davidson diagonalization with overlap

---- Real-time Memory Report at c_bands before calling an iterative solver
          2851 MiB given to the printing process from OS
         -1415 MiB allocation reported by mallinfo(arena+hblkhd)
         25388 MiB available memory on the node where the printing process lives
------------------
     c_bands:  1 eigenvalues not converged
     c_bands:  1 eigenvalues not converged
     c_bands:  1 eigenvalues not converged
     c_bands:  1 eigenvalues not converged
     ethr =  7.27E-05,  avg # of iterations = 11.1

     total cpu time spent up to now is    34882.5 secs

     total energy              =   -1542.37222586 Ry
     estimated scf accuracy    <       0.43402301 Ry

     total magnetization       =    -0.00 Bohr mag/cell
     absolute magnetization    =     5.63 Bohr mag/cell

     iteration # 64     ecut=    60.00 Ry     beta= 0.10
     Davidson diagonalization with overlap

---- Real-time Memory Report at c_bands before calling an iterative solver
          2851 MiB given to the printing process from OS
         -1415 MiB allocation reported by mallinfo(arena+hblkhd)
         25479 MiB available memory on the node where the printing process lives
------------------
     ethr =  7.27E-05,  avg # of iterations =  1.9

     total cpu time spent up to now is    35346.8 secs

     total energy              =   -1542.36694680 Ry
     estimated scf accuracy    <       0.41744815 Ry

     total magnetization       =    -0.00 Bohr mag/cell
     absolute magnetization    =     5.51 Bohr mag/cell

     iteration # 65     ecut=    60.00 Ry     beta= 0.10
     Davidson diagonalization with overlap

---- Real-time Memory Report at c_bands before calling an iterative solver
          2851 MiB given to the printing process from OS
         -1415 MiB allocation reported by mallinfo(arena+hblkhd)
         22988 MiB available memory on the node where the printing process lives
------------------
     ethr =  7.27E-05,  avg # of iterations =  1.0

     total cpu time spent up to now is    35776.9 secs

     total energy              =   -1542.36219221 Ry
     estimated scf accuracy    <       0.38082460 Ry

     total magnetization       =    -0.00 Bohr mag/cell
     absolute magnetization    =     5.49 Bohr mag/cell

     iteration # 66     ecut=    60.00 Ry     beta= 0.10
     Davidson diagonalization with overlap

---- Real-time Memory Report at c_bands before calling an iterative solver
          2851 MiB given to the printing process from OS
         -1415 MiB allocation reported by mallinfo(arena+hblkhd)
         22314 MiB available memory on the node where the printing process lives
------------------
     ethr =  7.27E-05,  avg # of iterations =  1.0

     total cpu time spent up to now is    36220.7 secs

     total energy              =   -1542.37054897 Ry
     estimated scf accuracy    <       0.32791317 Ry

     total magnetization       =    -0.00 Bohr mag/cell
     absolute magnetization    =     5.47 Bohr mag/cell

     iteration # 67     ecut=    60.00 Ry     beta= 0.10
     Davidson diagonalization with overlap

---- Real-time Memory Report at c_bands before calling an iterative solver
          2851 MiB given to the printing process from OS
         -1415 MiB allocation reported by mallinfo(arena+hblkhd)
         21810 MiB available memory on the node where the printing process lives
------------------
     ethr =  7.27E-05,  avg # of iterations =  1.0

     total cpu time spent up to now is    36648.1 secs

     total energy              =   -1542.37115842 Ry
     estimated scf accuracy    <       0.36257379 Ry

     total magnetization       =    -0.00 Bohr mag/cell
     absolute magnetization    =     5.47 Bohr mag/cell

     iteration # 68     ecut=    60.00 Ry     beta= 0.10
     Davidson diagonalization with overlap

---- Real-time Memory Report at c_bands before calling an iterative solver
          2851 MiB given to the printing process from OS
         -1415 MiB allocation reported by mallinfo(arena+hblkhd)
         21404 MiB available memory on the node where the printing process lives
------------------
     ethr =  7.27E-05,  avg # of iterations =  1.0

     total cpu time spent up to now is    37092.6 secs

     total energy              =   -1542.37694042 Ry
     estimated scf accuracy    <       0.36619378 Ry

     total magnetization       =     0.00 Bohr mag/cell
     absolute magnetization    =     5.46 Bohr mag/cell

     iteration # 69     ecut=    60.00 Ry     beta= 0.10
     Davidson diagonalization with overlap

---- Real-time Memory Report at c_bands before calling an iterative solver
          2851 MiB given to the printing process from OS
         -1415 MiB allocation reported by mallinfo(arena+hblkhd)
         21052 MiB available memory on the node where the printing process lives
------------------
     ethr =  7.27E-05,  avg # of iterations =  1.0

     total cpu time spent up to now is    37528.7 secs

     total energy              =   -1542.38446083 Ry
     estimated scf accuracy    <       0.40906399 Ry

     total magnetization       =    -0.00 Bohr mag/cell
     absolute magnetization    =     5.45 Bohr mag/cell

     iteration # 70     ecut=    60.00 Ry     beta= 0.10
     Davidson diagonalization with overlap

---- Real-time Memory Report at c_bands before calling an iterative solver
          2851 MiB given to the printing process from OS
         -1415 MiB allocation reported by mallinfo(arena+hblkhd)
         21134 MiB available memory on the node where the printing process lives
------------------
     ethr =  7.27E-05,  avg # of iterations =  1.2

     total cpu time spent up to now is    37971.9 secs

     total energy              =   -1542.37576225 Ry
     estimated scf accuracy    <       0.48049286 Ry

     total magnetization       =    -0.00 Bohr mag/cell
     absolute magnetization    =     5.45 Bohr mag/cell

     iteration # 71     ecut=    60.00 Ry     beta= 0.10
     Davidson diagonalization with overlap

---- Real-time Memory Report at c_bands before calling an iterative solver
          2851 MiB given to the printing process from OS
         -1415 MiB allocation reported by mallinfo(arena+hblkhd)
         21211 MiB available memory on the node where the printing process lives
------------------
     ethr =  7.27E-05,  avg # of iterations =  1.0

     total cpu time spent up to now is    38410.0 secs

     total energy              =   -1542.23740923 Ry
     estimated scf accuracy    <       0.44247684 Ry

     total magnetization       =     0.00 Bohr mag/cell
     absolute magnetization    =     5.51 Bohr mag/cell

     iteration # 72     ecut=    60.00 Ry     beta= 0.10
     Davidson diagonalization with overlap

---- Real-time Memory Report at c_bands before calling an iterative solver
          2851 MiB given to the printing process from OS
         -1415 MiB allocation reported by mallinfo(arena+hblkhd)
         21130 MiB available memory on the node where the printing process lives
------------------
     c_bands:  1 eigenvalues not converged
     c_bands:  1 eigenvalues not converged
     c_bands:  1 eigenvalues not converged
     c_bands:  1 eigenvalues not converged
     c_bands:  2 eigenvalues not converged
     c_bands:  3 eigenvalues not converged
     c_bands:  2 eigenvalues not converged
     c_bands:  3 eigenvalues not converged
     ethr =  7.27E-05,  avg # of iterations = 18.8

     total cpu time spent up to now is    39427.3 secs

     total energy              =   -1542.03615098 Ry
     estimated scf accuracy    <       6.46190869 Ry

     total magnetization       =     0.00 Bohr mag/cell
     absolute magnetization    =     4.07 Bohr mag/cell

     iteration # 73     ecut=    60.00 Ry     beta= 0.10
     Davidson diagonalization with overlap

---- Real-time Memory Report at c_bands before calling an iterative solver
          2851 MiB given to the printing process from OS
         -1415 MiB allocation reported by mallinfo(arena+hblkhd)
         21050 MiB available memory on the node where the printing process lives
------------------
     c_bands:  2 eigenvalues not converged
     c_bands:  1 eigenvalues not converged
     c_bands:  2 eigenvalues not converged
     c_bands:  1 eigenvalues not converged
     c_bands:  2 eigenvalues not converged
     c_bands:  1 eigenvalues not converged
     c_bands:  2 eigenvalues not converged
     c_bands:  1 eigenvalues not converged
     c_bands:  3 eigenvalues not converged
     c_bands:  2 eigenvalues not converged
     c_bands:  2 eigenvalues not converged
     c_bands:  2 eigenvalues not converged
     c_bands:  1 eigenvalues not converged
     ethr =  7.27E-05,  avg # of iterations = 19.6

     total cpu time spent up to now is    40469.9 secs

     total energy              =   -1542.35669218 Ry
     estimated scf accuracy    <       0.14789592 Ry

     total magnetization       =    -0.00 Bohr mag/cell
     absolute magnetization    =     5.54 Bohr mag/cell

     iteration # 74     ecut=    60.00 Ry     beta= 0.10
     Davidson diagonalization with overlap

---- Real-time Memory Report at c_bands before calling an iterative solver
          2851 MiB given to the printing process from OS
         -1415 MiB allocation reported by mallinfo(arena+hblkhd)
         21043 MiB available memory on the node where the printing process lives
------------------
     c_bands:  1 eigenvalues not converged
     ethr =  7.27E-05,  avg # of iterations =  4.5

     total cpu time spent up to now is    40943.8 secs

     total energy              =   -1542.35722654 Ry
     estimated scf accuracy    <       0.10354434 Ry

     total magnetization       =    -0.00 Bohr mag/cell
     absolute magnetization    =     5.50 Bohr mag/cell

     iteration # 75     ecut=    60.00 Ry     beta= 0.10
     Davidson diagonalization with overlap

---- Real-time Memory Report at c_bands before calling an iterative solver
          2851 MiB given to the printing process from OS
         -1415 MiB allocation reported by mallinfo(arena+hblkhd)
         21216 MiB available memory on the node where the printing process lives
------------------
     ethr =  5.39E-05,  avg # of iterations =  1.2

     total cpu time spent up to now is    41419.1 secs

     total energy              =   -1542.35729981 Ry
     estimated scf accuracy    <       0.08715886 Ry

     total magnetization       =     0.00 Bohr mag/cell
     absolute magnetization    =     5.49 Bohr mag/cell

     iteration # 76     ecut=    60.00 Ry     beta= 0.10
     Davidson diagonalization with overlap

---- Real-time Memory Report at c_bands before calling an iterative solver
          2851 MiB given to the printing process from OS
         -1415 MiB allocation reported by mallinfo(arena+hblkhd)
         21031 MiB available memory on the node where the printing process lives
------------------
     ethr =  4.54E-05,  avg # of iterations =  1.0

     total cpu time spent up to now is    41865.6 secs

     total energy              =   -1542.35920065 Ry
     estimated scf accuracy    <       0.07644604 Ry

     total magnetization       =    -0.00 Bohr mag/cell
     absolute magnetization    =     5.48 Bohr mag/cell

     iteration # 77     ecut=    60.00 Ry     beta= 0.10
     Davidson diagonalization with overlap

---- Real-time Memory Report at c_bands before calling an iterative solver
          2851 MiB given to the printing process from OS
         -1415 MiB allocation reported by mallinfo(arena+hblkhd)
         21032 MiB available memory on the node where the printing process lives
------------------
     ethr =  3.98E-05,  avg # of iterations =  1.0

     negative rho (up, down):  6.745E-06 0.000E+00

     total cpu time spent up to now is    42302.1 secs

     total energy              =   -1542.35938679 Ry
     estimated scf accuracy    <       0.07548149 Ry

     total magnetization       =     0.00 Bohr mag/cell
     absolute magnetization    =     5.46 Bohr mag/cell

     iteration # 78     ecut=    60.00 Ry     beta= 0.10
     Davidson diagonalization with overlap

---- Real-time Memory Report at c_bands before calling an iterative solver
          2851 MiB given to the printing process from OS
         -1415 MiB allocation reported by mallinfo(arena+hblkhd)
         21212 MiB available memory on the node where the printing process lives
------------------
     ethr =  3.93E-05,  avg # of iterations =  1.0

     negative rho (up, down):  1.383E-04 1.194E-07

     total cpu time spent up to now is    42746.6 secs

     total energy              =   -1542.34981116 Ry
     estimated scf accuracy    <       0.07201607 Ry

     total magnetization       =    -0.00 Bohr mag/cell
     absolute magnetization    =     5.45 Bohr mag/cell

     iteration # 79     ecut=    60.00 Ry     beta= 0.10
     Davidson diagonalization with overlap

---- Real-time Memory Report at c_bands before calling an iterative solver
          2851 MiB given to the printing process from OS
         -1415 MiB allocation reported by mallinfo(arena+hblkhd)
         21044 MiB available memory on the node where the printing process lives
------------------
