
     Program PWSCF v.7.4 starts on 25Nov2025 at 20:24:50 

     This program is part of the open-source Quantum ESPRESSO suite
     for quantum simulation of materials; please cite
         "P. Giannozzi et al., J. Phys.:Condens. Matter 21 395502 (2009);
         "P. Giannozzi et al., J. Phys.:Condens. Matter 29 465901 (2017);
         "P. Giannozzi et al., J. Chem. Phys. 152 154105 (2020);
          URL http://www.quantum-espresso.org", 
     in publications or presentations arising from this work. More details at
     http://www.quantum-espresso.org/quote

     Parallel version (MPI & OpenMP), running on       1 processor cores
     Number of MPI processes:                 1
     Threads/MPI process:                     1

     MPI processes distributed on     1 nodes
     30975 MiB available memory on the printing compute node when the environment starts

     Waiting for input...
     Reading input from standard input

     Current dimensions of program PWSCF are:
     Max number of different atomic species (ntypx) = 10
     Max number of k-points (npk) =  40000
     Max angular momentum in pseudopotentials (lmaxx) =  4

     Subspace diagonalization in iterative solution of the eigenvalue problem:
     a serial algorithm will be used


     G-vector sticks info
     --------------------
     sticks:   dense  smooth     PW     G-vecs:    dense   smooth      PW
     Sum       16693   16693   4599               482247   482247   69897

     Using Slab Decomposition



     bravais-lattice index     =            0
     lattice parameter (alat)  =      38.6872  a.u.
     unit-cell volume          =    7679.5612 (a.u.)^3
     number of atoms/cell      =           28
     number of atomic types    =            4
     number of electrons       =       192.00 (up:  96.00, down:  96.00)
     number of Kohn-Sham states=           96
     kinetic-energy cutoff     =      60.0000  Ry
     charge density cutoff     =     240.0000  Ry
     scf convergence threshold =      1.0E-03
     mixing beta               =       0.1000
     number of iterations used =            8  local-TF  mixing
     Exchange-correlation= PBE
                           (   1   4   3   4   0   0   0)

     celldm(1)=  38.687214  celldm(2)=   0.000000  celldm(3)=   0.000000
     celldm(4)=   0.000000  celldm(5)=   0.000000  celldm(6)=   0.000000

     crystal axes: (cart. coord. in units of alat)
               a(1) = (   1.000000   0.000000   0.000000 )  
               a(2) = (   0.000000   0.583298   0.000000 )  
               a(3) = (   0.000000   0.000000   0.227375 )  

     reciprocal axes: (cart. coord. in units 2 pi/alat)
               b(1) = (  1.000000  0.000000  0.000000 )  
               b(2) = (  0.000000  1.714389  0.000000 )  
               b(3) = (  0.000000  0.000000  4.398014 )  


     PseudoPot. # 1 for Li read from file:
     ./Li.upf
     MD5 check sum: dbcf0ea72988e720c8c712b432d51b0d
     Pseudo is Norm-conserving, Zval =  3.0
     Generated using ONCVPSP code by D. R. Hamann
     Using radial grid of 1944 points,  4 beta functions with: 
                l(1) =   0
                l(2) =   0
                l(3) =   1
                l(4) =   1

     PseudoPot. # 2 for Fe read from file:
     ./Fe.upf
     MD5 check sum: a5f07f5dca5be6cacb81ceb54992e4ae
     Pseudo is Norm-conserving + core correction, Zval = 16.0
     Generated using ONCVPSP code by D. R. Hamann
     Using radial grid of 1426 points,  6 beta functions with: 
                l(1) =   0
                l(2) =   0
                l(3) =   1
                l(4) =   1
                l(5) =   2
                l(6) =   2

     PseudoPot. # 3 for P  read from file:
     ./P.upf
     MD5 check sum: c802fd0635a0ed1615482a1b584dae5b
     Pseudo is Norm-conserving + core correction, Zval =  5.0
     Generated using ONCVPSP code by D. R. Hamann
     Using radial grid of 1298 points,  6 beta functions with: 
                l(1) =   0
                l(2) =   0
                l(3) =   1
                l(4) =   1
                l(5) =   2
                l(6) =   2

     PseudoPot. # 4 for O  read from file:
     ./O.upf
     MD5 check sum: 3e3f909f7470e8921608ab6b1f57bbae
     Pseudo is Norm-conserving + core correction, Zval =  6.0
     Generated using ONCVPSP code by D. R. Hamann
     Using radial grid of  936 points,  5 beta functions with: 
                l(1) =   0
                l(2) =   0
                l(3) =   1
                l(4) =   1
                l(5) =   2

     atomic species   valence    mass     pseudopotential
     Li                3.00     6.94000     Li( 1.00)
     Fe               16.00    55.84500     Fe( 1.00)
     P                 5.00    30.97400     P ( 1.00)
     O                 6.00    15.99900     O ( 1.00)

     Starting magnetic structure 
     atomic species   magnetization
     Li              0.000
     Fe              0.700
     P               0.000
     O               0.000

     No symmetry found


                                    s                        frac. trans.

      isym =  1     identity                                     

 cryst.   s( 1) = (     1          0          0      )
                  (     0          1          0      )
                  (     0          0          1      )

 cart.    s( 1) = (  1.0000000  0.0000000  0.0000000 )
                  (  0.0000000  1.0000000  0.0000000 )
                  (  0.0000000  0.0000000  1.0000000 )


   Cartesian axes

     site n.     atom                  positions (alat units)
         1        Li     tau(   1) = (   0.0000000   0.0000000   0.0000000  )
         2        Li     tau(   2) = (   0.1136877   0.1458247   0.2500001  )
         3        Li     tau(   3) = (   0.1136877   0.0000000   0.2500001  )
         4        Li     tau(   4) = (   0.0000000   0.1458247   0.0000000  )
         5        Fe     tau(   5) = (   0.1204783   0.0729123   0.3905758  )
         6        Fe     tau(   6) = (   0.0067906   0.2187370   0.3594245  )
         7        Fe     tau(   7) = (   0.2205844   0.0729123   0.1405757  )
         8        Fe     tau(   8) = (   0.1068971   0.2187370   0.1094244  )
         9        P      tau(   9) = (   0.0951843   0.0729123   0.0469330  )
        10        P      tau(  10) = (   0.2088720   0.2187370   0.2030666  )
        11        P      tau(  11) = (   0.0185035   0.0729123   0.2969331  )
        12        P      tau(  12) = (   0.1321907   0.2187370   0.4530667  )
        13        O      tau(  13) = (   0.1693461   0.0729123   0.0471152  )
        14        O      tau(  14) = (   0.1622859   0.1591114   0.4170773  )
        15        O      tau(  15) = (   0.1622859   0.2783622   0.4170773  )
        16        O      tau(  16) = (   0.0580294   0.2187370   0.4528845  )
        17        O      tau(  17) = (   0.1614057   0.2187370   0.0221542  )
        18        O      tau(  18) = (   0.0556584   0.2187370   0.2028844  )
        19        O      tau(  19) = (   0.0650896   0.0132872   0.0829229  )
        20        O      tau(  20) = (   0.0485981   0.1325375   0.3329225  )
        21        O      tau(  21) = (   0.1787773   0.1591114   0.1670772  )
        22        O      tau(  22) = (   0.1787773   0.2783622   0.1670772  )
        23        O      tau(  23) = (   0.0659698   0.0729123   0.4778455  )
        24        O      tau(  24) = (   0.0477179   0.0729123   0.2278459  )
        25        O      tau(  25) = (   0.1796576   0.2187370   0.2721543  )
        26        O      tau(  26) = (   0.1717171   0.0729123   0.2971153  )
        27        O      tau(  27) = (   0.0485981   0.0132872   0.3329225  )
        28        O      tau(  28) = (   0.0650896   0.1325375   0.0829229  )

   Crystallographic axes

     site n.     atom                  positions (cryst. coord.)
         1        Li     tau(   1) = (  0.0000000  0.0000000  0.0000000  )
         2        Li     tau(   2) = (  0.1136877  0.2500002  1.0995040  )
         3        Li     tau(   3) = (  0.1136877  0.0000000  1.0995040  )
         4        Li     tau(   4) = (  0.0000000  0.2500002  0.0000000  )
         5        Fe     tau(   5) = (  0.1204783  0.1250001  1.7177577  )
         6        Fe     tau(   6) = (  0.0067906  0.3750003  1.5807542  )
         7        Fe     tau(   7) = (  0.2205844  0.1250001  0.6182537  )
         8        Fe     tau(   8) = (  0.1068971  0.3750003  0.4812502  )
         9        P      tau(   9) = (  0.0951843  0.1250001  0.2064118  )
        10        P      tau(  10) = (  0.2088720  0.3750003  0.8930900  )
        11        P      tau(  11) = (  0.0185035  0.1250001  1.3059158  )
        12        P      tau(  12) = (  0.1321907  0.3750003  1.9925940  )
        13        O      tau(  13) = (  0.1693461  0.1250001  0.2072131  )
        14        O      tau(  14) = (  0.1622859  0.2727787  1.8343119  )
        15        O      tau(  15) = (  0.1622859  0.4772210  1.8343119  )
        16        O      tau(  16) = (  0.0580294  0.3750003  1.9917927  )
        17        O      tau(  17) = (  0.1614057  0.3750003  0.0974346  )
        18        O      tau(  18) = (  0.0556584  0.3750003  0.8922887  )
        19        O      tau(  19) = (  0.0650896  0.0227794  0.3646961  )
        20        O      tau(  20) = (  0.0485981  0.2272208  1.4641979  )
        21        O      tau(  21) = (  0.1787773  0.2727787  0.7348079  )
        22        O      tau(  22) = (  0.1787773  0.4772210  0.7348079  )
        23        O      tau(  23) = (  0.0659698  0.1250001  2.1015712  )
        24        O      tau(  24) = (  0.0477179  0.1250001  1.0020694  )
        25        O      tau(  25) = (  0.1796576  0.3750003  1.1969386  )
        26        O      tau(  26) = (  0.1717171  0.1250001  1.3067171  )
        27        O      tau(  27) = (  0.0485981  0.0227794  1.4641979  )
        28        O      tau(  28) = (  0.0650896  0.2272208  0.3646961  )

     number of k points=     8
                       cart. coord. in units 2pi/alat
        k(    1) = (   0.0000000   0.0000000   0.0000000), wk =   0.1250000
        k(    2) = (   0.0000000   0.0000000  -2.1990071), wk =   0.1250000
        k(    3) = (   0.0000000  -0.8571944   0.0000000), wk =   0.1250000
        k(    4) = (   0.0000000  -0.8571944  -2.1990071), wk =   0.1250000
        k(    5) = (  -0.5000000   0.0000000   0.0000000), wk =   0.1250000
        k(    6) = (  -0.5000000   0.0000000  -2.1990071), wk =   0.1250000
        k(    7) = (  -0.5000000  -0.8571944   0.0000000), wk =   0.1250000
        k(    8) = (  -0.5000000  -0.8571944  -2.1990071), wk =   0.1250000

                       cryst. coord.
        k(    1) = (   0.0000000   0.0000000   0.0000000), wk =   0.1250000
        k(    2) = (   0.0000000   0.0000000  -0.5000000), wk =   0.1250000
        k(    3) = (   0.0000000  -0.5000000   0.0000000), wk =   0.1250000
        k(    4) = (   0.0000000  -0.5000000  -0.5000000), wk =   0.1250000
        k(    5) = (  -0.5000000   0.0000000   0.0000000), wk =   0.1250000
        k(    6) = (  -0.5000000   0.0000000  -0.5000000), wk =   0.1250000
        k(    7) = (  -0.5000000  -0.5000000   0.0000000), wk =   0.1250000
        k(    8) = (  -0.5000000  -0.5000000  -0.5000000), wk =   0.1250000

     Dense  grid:   482247 G-vectors     FFT dimensions: ( 192, 120,  45)

     Dynamical RAM for                 wfc:      88.29 MB

     Dynamical RAM for     wfc (w. buffer):    1500.91 MB

     Dynamical RAM for           str. fact:      29.43 MB

     Dynamical RAM for           local pot:       0.00 MB

     Dynamical RAM for          nlocal pot:     353.16 MB

     Dynamical RAM for                qrad:       4.98 MB

     Dynamical RAM for          rho,v,vnew:      91.61 MB

     Dynamical RAM for               rhoin:      30.54 MB

     Dynamical RAM for            rho*nmix:     235.47 MB

     Dynamical RAM for           G-vectors:      31.27 MB

     Dynamical RAM for          h,s,v(r/c):       1.69 MB

     Dynamical RAM for          <psi|beta>:       0.56 MB

     Dynamical RAM for                 psi:     176.58 MB

     Dynamical RAM for                hpsi:     176.58 MB

     Dynamical RAM for      wfcinit/wfcrot:     176.79 MB

     Estimated static dynamical RAM per process >       2.08 GB

     Estimated max dynamical RAM per process >       2.65 GB

     Check: negative core charge=   -0.000013
     Generating pointlists ...
     new r_m :   0.0324 (alat units)  1.2540 (a.u.) for type    1
     new r_m :   0.0355 (alat units)  1.3733 (a.u.) for type    2
     new r_m :   0.0156 (alat units)  0.6017 (a.u.) for type    3
     new r_m :   0.0094 (alat units)  0.3630 (a.u.) for type    4

     Initial potential from superposition of free atoms

     starting charge     191.9796, renormalised to     192.0000

     negative rho (up, down):  1.362E-03 2.338E-04
     Starting wfcs are  128 randomized atomic wfcs

     total cpu time spent up to now is      440.3 secs

     Self-consistent Calculation

     iteration #  1     ecut=    60.00 Ry     beta= 0.10
     Davidson diagonalization with overlap

---- Real-time Memory Report at c_bands before calling an iterative solver
          2238 MiB given to the printing process from OS
         -1962 MiB allocation reported by mallinfo(arena+hblkhd)
         28893 MiB available memory on the node where the printing process lives
------------------
     ethr =  1.00E-02,  avg # of iterations =  6.4

     negative rho (up, down):  5.466E-04 6.843E-05

     total cpu time spent up to now is     1997.8 secs

     total energy              =   -1546.08947560 Ry
     estimated scf accuracy    <      39.06285985 Ry

     total magnetization       =     0.00 Bohr mag/cell
     absolute magnetization    =    21.72 Bohr mag/cell

     iteration #  2     ecut=    60.00 Ry     beta= 0.10
     Davidson diagonalization with overlap

---- Real-time Memory Report at c_bands before calling an iterative solver
          2490 MiB given to the printing process from OS
         -1652 MiB allocation reported by mallinfo(arena+hblkhd)
         28503 MiB available memory on the node where the printing process lives
------------------
     ethr =  1.00E-02,  avg # of iterations =  1.0

     negative rho (up, down):  1.062E-02 8.742E-03

     total cpu time spent up to now is     2786.5 secs

     total energy              =   -1536.37708994 Ry
     estimated scf accuracy    <      33.83994393 Ry

     total magnetization       =     0.00 Bohr mag/cell
     absolute magnetization    =    21.76 Bohr mag/cell

     iteration #  3     ecut=    60.00 Ry     beta= 0.10
     Davidson diagonalization with overlap

---- Real-time Memory Report at c_bands before calling an iterative solver
          2605 MiB given to the printing process from OS
         -1623 MiB allocation reported by mallinfo(arena+hblkhd)
         28487 MiB available memory on the node where the printing process lives
------------------
     ethr =  1.00E-02,  avg # of iterations =  5.7

     negative rho (up, down):  4.173E-03 3.583E-03

     total cpu time spent up to now is     4028.6 secs

     total energy              =   -1542.09442816 Ry
     estimated scf accuracy    <       5.77874587 Ry

     total magnetization       =     0.00 Bohr mag/cell
     absolute magnetization    =    14.85 Bohr mag/cell

     iteration #  4     ecut=    60.00 Ry     beta= 0.10
     Davidson diagonalization with overlap

---- Real-time Memory Report at c_bands before calling an iterative solver
          2635 MiB given to the printing process from OS
         -1593 MiB allocation reported by mallinfo(arena+hblkhd)
         28450 MiB available memory on the node where the printing process lives
------------------
     ethr =  3.01E-03,  avg # of iterations =  3.9

     negative rho (up, down):  5.016E-03 4.325E-03

     total cpu time spent up to now is     4909.1 secs

     total energy              =   -1542.58858451 Ry
     estimated scf accuracy    <       5.19319195 Ry

     total magnetization       =    -0.00 Bohr mag/cell
     absolute magnetization    =    14.62 Bohr mag/cell

     iteration #  5     ecut=    60.00 Ry     beta= 0.10
     Davidson diagonalization with overlap

---- Real-time Memory Report at c_bands before calling an iterative solver
          2664 MiB given to the printing process from OS
         -1564 MiB allocation reported by mallinfo(arena+hblkhd)
         28421 MiB available memory on the node where the printing process lives
------------------
     ethr =  2.70E-03,  avg # of iterations =  4.4

     negative rho (up, down):  1.543E-05 1.446E-05

     total cpu time spent up to now is     5766.4 secs

     total energy              =   -1540.51683117 Ry
     estimated scf accuracy    <       8.33500794 Ry

     total magnetization       =    -0.00 Bohr mag/cell
     absolute magnetization    =    13.57 Bohr mag/cell

     iteration #  6     ecut=    60.00 Ry     beta= 0.10
     Davidson diagonalization with overlap

---- Real-time Memory Report at c_bands before calling an iterative solver
          2694 MiB given to the printing process from OS
         -1534 MiB allocation reported by mallinfo(arena+hblkhd)
         28398 MiB available memory on the node where the printing process lives
------------------
     ethr =  2.70E-03,  avg # of iterations =  7.0

     negative rho (up, down):  8.981E-04 7.568E-04

     total cpu time spent up to now is     6994.6 secs

     total energy              =   -1542.41939236 Ry
     estimated scf accuracy    <       9.22190536 Ry

     total magnetization       =     0.00 Bohr mag/cell
     absolute magnetization    =    12.24 Bohr mag/cell

     iteration #  7     ecut=    60.00 Ry     beta= 0.10
     Davidson diagonalization with overlap

---- Real-time Memory Report at c_bands before calling an iterative solver
          2723 MiB given to the printing process from OS
         -1505 MiB allocation reported by mallinfo(arena+hblkhd)
         28281 MiB available memory on the node where the printing process lives
------------------
     ethr =  2.70E-03,  avg # of iterations =  2.0

     negative rho (up, down):  5.661E-04 4.686E-04

     total cpu time spent up to now is     7847.7 secs

     total energy              =   -1542.99583799 Ry
     estimated scf accuracy    <       5.48821915 Ry

     total magnetization       =     0.00 Bohr mag/cell
     absolute magnetization    =    12.12 Bohr mag/cell

     iteration #  8     ecut=    60.00 Ry     beta= 0.10
     Davidson diagonalization with overlap

---- Real-time Memory Report at c_bands before calling an iterative solver
          2752 MiB given to the printing process from OS
         -1475 MiB allocation reported by mallinfo(arena+hblkhd)
         28266 MiB available memory on the node where the printing process lives
------------------
     ethr =  2.70E-03,  avg # of iterations =  1.0

     negative rho (up, down):  5.690E-04 4.635E-04

     total cpu time spent up to now is     8640.4 secs

     total energy              =   -1543.89905608 Ry
     estimated scf accuracy    <       6.87153232 Ry

     total magnetization       =    -0.00 Bohr mag/cell
     absolute magnetization    =    11.90 Bohr mag/cell

     iteration #  9     ecut=    60.00 Ry     beta= 0.10
     Davidson diagonalization with overlap

---- Real-time Memory Report at c_bands before calling an iterative solver
          2782 MiB given to the printing process from OS
         -1446 MiB allocation reported by mallinfo(arena+hblkhd)
         28231 MiB available memory on the node where the printing process lives
------------------
     ethr =  2.70E-03,  avg # of iterations =  2.0

     negative rho (up, down):  1.748E-05 1.743E-05

     total cpu time spent up to now is     9492.4 secs

     total energy              =   -1541.00592562 Ry
     estimated scf accuracy    <      11.62319887 Ry

     total magnetization       =     0.00 Bohr mag/cell
     absolute magnetization    =    11.62 Bohr mag/cell

     iteration # 10     ecut=    60.00 Ry     beta= 0.10
     Davidson diagonalization with overlap

---- Real-time Memory Report at c_bands before calling an iterative solver
          2811 MiB given to the printing process from OS
         -1417 MiB allocation reported by mallinfo(arena+hblkhd)
         28195 MiB available memory on the node where the printing process lives
------------------
     ethr =  2.70E-03,  avg # of iterations =  8.5

     negative rho (up, down):  1.784E-05 1.691E-05

     total cpu time spent up to now is    10639.3 secs

     total energy              =   -1542.14082404 Ry
     estimated scf accuracy    <       9.16534617 Ry

     total magnetization       =     0.00 Bohr mag/cell
     absolute magnetization    =     8.89 Bohr mag/cell

     iteration # 11     ecut=    60.00 Ry     beta= 0.10
     Davidson diagonalization with overlap

---- Real-time Memory Report at c_bands before calling an iterative solver
          2841 MiB given to the printing process from OS
         -1417 MiB allocation reported by mallinfo(arena+hblkhd)
         28197 MiB available memory on the node where the printing process lives
------------------
     ethr =  2.70E-03,  avg # of iterations =  1.9

     negative rho (up, down):  1.220E-05 1.114E-05

     total cpu time spent up to now is    11469.9 secs

     total energy              =   -1541.80513697 Ry
     estimated scf accuracy    <       5.89742538 Ry

     total magnetization       =    -0.00 Bohr mag/cell
     absolute magnetization    =     8.86 Bohr mag/cell

     iteration # 12     ecut=    60.00 Ry     beta= 0.10
     Davidson diagonalization with overlap

---- Real-time Memory Report at c_bands before calling an iterative solver
          2841 MiB given to the printing process from OS
         -1417 MiB allocation reported by mallinfo(arena+hblkhd)
         28202 MiB available memory on the node where the printing process lives
------------------
     ethr =  2.70E-03,  avg # of iterations =  7.4

     negative rho (up, down):  1.031E-05 1.021E-05

     total cpu time spent up to now is    12445.6 secs

     total energy              =   -1542.45904983 Ry
     estimated scf accuracy    <       1.95835273 Ry

     total magnetization       =     0.00 Bohr mag/cell
     absolute magnetization    =     9.15 Bohr mag/cell

     iteration # 13     ecut=    60.00 Ry     beta= 0.10
     Davidson diagonalization with overlap

---- Real-time Memory Report at c_bands before calling an iterative solver
          2841 MiB given to the printing process from OS
         -1417 MiB allocation reported by mallinfo(arena+hblkhd)
         28196 MiB available memory on the node where the printing process lives
------------------
     ethr =  1.02E-03,  avg # of iterations =  3.0

     negative rho (up, down):  1.359E-05 1.383E-05

     total cpu time spent up to now is    13316.1 secs

     total energy              =   -1542.01572180 Ry
     estimated scf accuracy    <       2.88828758 Ry

     total magnetization       =    -0.00 Bohr mag/cell
     absolute magnetization    =     9.48 Bohr mag/cell

     iteration # 14     ecut=    60.00 Ry     beta= 0.10
     Davidson diagonalization with overlap

---- Real-time Memory Report at c_bands before calling an iterative solver
          2841 MiB given to the printing process from OS
         -1417 MiB allocation reported by mallinfo(arena+hblkhd)
         28197 MiB available memory on the node where the printing process lives
------------------
     ethr =  1.02E-03,  avg # of iterations = 10.4

     negative rho (up, down):  4.358E-05 3.806E-05

     total cpu time spent up to now is    14480.5 secs

     total energy              =   -1541.14223199 Ry
     estimated scf accuracy    <      14.81251236 Ry

     total magnetization       =     0.00 Bohr mag/cell
     absolute magnetization    =     7.11 Bohr mag/cell

     iteration # 15     ecut=    60.00 Ry     beta= 0.10
     Davidson diagonalization with overlap

---- Real-time Memory Report at c_bands before calling an iterative solver
          2841 MiB given to the printing process from OS
         -1417 MiB allocation reported by mallinfo(arena+hblkhd)
         28195 MiB available memory on the node where the printing process lives
------------------
     ethr =  1.02E-03,  avg # of iterations = 11.9

     negative rho (up, down):  2.642E-04 2.296E-04

     total cpu time spent up to now is    15953.6 secs

     total energy              =   -1542.58409048 Ry
     estimated scf accuracy    <       2.92696716 Ry

     total magnetization       =     0.00 Bohr mag/cell
     absolute magnetization    =     9.67 Bohr mag/cell

     iteration # 16     ecut=    60.00 Ry     beta= 0.10
     Davidson diagonalization with overlap

---- Real-time Memory Report at c_bands before calling an iterative solver
          2841 MiB given to the printing process from OS
         -1417 MiB allocation reported by mallinfo(arena+hblkhd)
         28199 MiB available memory on the node where the printing process lives
------------------
     ethr =  1.02E-03,  avg # of iterations =  1.0

     negative rho (up, down):  1.629E-05 1.641E-05

     total cpu time spent up to now is    16745.2 secs

     total energy              =   -1542.17385086 Ry
     estimated scf accuracy    <       3.09245621 Ry

     total magnetization       =    -0.00 Bohr mag/cell
     absolute magnetization    =     9.68 Bohr mag/cell

     iteration # 17     ecut=    60.00 Ry     beta= 0.10
     Davidson diagonalization with overlap

---- Real-time Memory Report at c_bands before calling an iterative solver
          2841 MiB given to the printing process from OS
         -1417 MiB allocation reported by mallinfo(arena+hblkhd)
         28200 MiB available memory on the node where the printing process lives
------------------
     ethr =  1.02E-03,  avg # of iterations =  4.4

     negative rho (up, down):  2.172E-05 2.212E-05

     total cpu time spent up to now is    17652.0 secs

     total energy              =   -1542.07966285 Ry
     estimated scf accuracy    <       0.90761369 Ry

     total magnetization       =     0.00 Bohr mag/cell
     absolute magnetization    =     9.28 Bohr mag/cell

     iteration # 18     ecut=    60.00 Ry     beta= 0.10
     Davidson diagonalization with overlap

---- Real-time Memory Report at c_bands before calling an iterative solver
          2841 MiB given to the printing process from OS
         -1417 MiB allocation reported by mallinfo(arena+hblkhd)
         28199 MiB available memory on the node where the printing process lives
------------------
     ethr =  4.73E-04,  avg # of iterations = 11.1

     negative rho (up, down):  1.438E-05 1.459E-05

     total cpu time spent up to now is    18899.6 secs

     total energy              =   -1543.00622280 Ry
     estimated scf accuracy    <      15.87851319 Ry

     total magnetization       =    -0.00 Bohr mag/cell
     absolute magnetization    =     7.96 Bohr mag/cell

     iteration # 19     ecut=    60.00 Ry     beta= 0.10
     Davidson diagonalization with overlap

---- Real-time Memory Report at c_bands before calling an iterative solver
          2841 MiB given to the printing process from OS
         -1417 MiB allocation reported by mallinfo(arena+hblkhd)
         28201 MiB available memory on the node where the printing process lives
------------------
     ethr =  4.73E-04,  avg # of iterations =  1.0

     negative rho (up, down):  3.198E-06 3.232E-06

     total cpu time spent up to now is    19691.8 secs

     total energy              =   -1543.65926439 Ry
     estimated scf accuracy    <      16.02738722 Ry

     total magnetization       =     0.00 Bohr mag/cell
     absolute magnetization    =     7.95 Bohr mag/cell

     iteration # 20     ecut=    60.00 Ry     beta= 0.10
     Davidson diagonalization with overlap

---- Real-time Memory Report at c_bands before calling an iterative solver
          2841 MiB given to the printing process from OS
         -1417 MiB allocation reported by mallinfo(arena+hblkhd)
         28207 MiB available memory on the node where the printing process lives
------------------
     ethr =  4.73E-04,  avg # of iterations =  6.7

     negative rho (up, down):  6.020E-06 6.101E-06

     total cpu time spent up to now is    20675.2 secs

     total energy              =   -1543.51255340 Ry
     estimated scf accuracy    <      21.84126078 Ry

     total magnetization       =    -0.00 Bohr mag/cell
     absolute magnetization    =     7.01 Bohr mag/cell

     iteration # 21     ecut=    60.00 Ry     beta= 0.10
     Davidson diagonalization with overlap

---- Real-time Memory Report at c_bands before calling an iterative solver
          2841 MiB given to the printing process from OS
         -1417 MiB allocation reported by mallinfo(arena+hblkhd)
         28195 MiB available memory on the node where the printing process lives
------------------
     ethr =  4.73E-04,  avg # of iterations =  1.0

     negative rho (up, down):  1.086E-05 1.090E-05

     total cpu time spent up to now is    21467.8 secs

     total energy              =   -1542.49117034 Ry
     estimated scf accuracy    <      21.47296420 Ry

     total magnetization       =    -0.00 Bohr mag/cell
     absolute magnetization    =     6.99 Bohr mag/cell

     iteration # 22     ecut=    60.00 Ry     beta= 0.10
     Davidson diagonalization with overlap

---- Real-time Memory Report at c_bands before calling an iterative solver
          2841 MiB given to the printing process from OS
         -1417 MiB allocation reported by mallinfo(arena+hblkhd)
         28204 MiB available memory on the node where the printing process lives
------------------
     ethr =  4.73E-04,  avg # of iterations =  8.9

     negative rho (up, down):  3.674E-06 3.735E-06

     total cpu time spent up to now is    22482.5 secs

     total energy              =   -1543.08095118 Ry
     estimated scf accuracy    <      13.48439630 Ry

     total magnetization       =     0.00 Bohr mag/cell
     absolute magnetization    =     8.19 Bohr mag/cell

     iteration # 23     ecut=    60.00 Ry     beta= 0.10
     Davidson diagonalization with overlap

---- Real-time Memory Report at c_bands before calling an iterative solver
          2841 MiB given to the printing process from OS
         -1417 MiB allocation reported by mallinfo(arena+hblkhd)
         28199 MiB available memory on the node where the printing process lives
------------------
     ethr =  4.73E-04,  avg # of iterations =  5.8

     negative rho (up, down):  2.795E-06 2.868E-06

     total cpu time spent up to now is    23384.3 secs

     total energy              =   -1542.48806912 Ry
     estimated scf accuracy    <      16.73829165 Ry

     total magnetization       =    -0.00 Bohr mag/cell
     absolute magnetization    =     7.53 Bohr mag/cell

     iteration # 24     ecut=    60.00 Ry     beta= 0.10
     Davidson diagonalization with overlap

---- Real-time Memory Report at c_bands before calling an iterative solver
          2841 MiB given to the printing process from OS
         -1417 MiB allocation reported by mallinfo(arena+hblkhd)
         28205 MiB available memory on the node where the printing process lives
------------------
     ethr =  4.73E-04,  avg # of iterations =  3.5

     negative rho (up, down):  2.682E-06 2.718E-06

     total cpu time spent up to now is    24238.5 secs

     total energy              =   -1542.87987146 Ry
     estimated scf accuracy    <      14.13471667 Ry

     total magnetization       =    -0.00 Bohr mag/cell
     absolute magnetization    =     7.54 Bohr mag/cell

     iteration # 25     ecut=    60.00 Ry     beta= 0.10
     Davidson diagonalization with overlap

---- Real-time Memory Report at c_bands before calling an iterative solver
          2841 MiB given to the printing process from OS
         -1417 MiB allocation reported by mallinfo(arena+hblkhd)
         28204 MiB available memory on the node where the printing process lives
------------------
     ethr =  4.73E-04,  avg # of iterations =  1.6

     negative rho (up, down):  6.786E-07 6.849E-07

     total cpu time spent up to now is    25036.0 secs

     total energy              =   -1542.64584379 Ry
     estimated scf accuracy    <      15.08369014 Ry

     total magnetization       =     0.00 Bohr mag/cell
     absolute magnetization    =     7.56 Bohr mag/cell

     iteration # 26     ecut=    60.00 Ry     beta= 0.10
     Davidson diagonalization with overlap

---- Real-time Memory Report at c_bands before calling an iterative solver
          2841 MiB given to the printing process from OS
         -1417 MiB allocation reported by mallinfo(arena+hblkhd)
         28203 MiB available memory on the node where the printing process lives
------------------
     ethr =  4.73E-04,  avg # of iterations =  1.0

     negative rho (up, down):  1.991E-05 1.982E-05

     total cpu time spent up to now is    25827.7 secs

     total energy              =   -1537.24547083 Ry
     estimated scf accuracy    <      14.24829022 Ry

     total magnetization       =     0.00 Bohr mag/cell
     absolute magnetization    =     7.44 Bohr mag/cell

     iteration # 27     ecut=    60.00 Ry     beta= 0.10
     Davidson diagonalization with overlap

---- Real-time Memory Report at c_bands before calling an iterative solver
          2841 MiB given to the printing process from OS
         -1417 MiB allocation reported by mallinfo(arena+hblkhd)
         28176 MiB available memory on the node where the printing process lives
------------------
     c_bands:  2 eigenvalues not converged
     c_bands:  2 eigenvalues not converged
     ethr =  4.73E-04,  avg # of iterations = 16.5

     negative rho (up, down):  1.356E-05 9.678E-06

     total cpu time spent up to now is    27787.9 secs

     total energy              =   -1545.54595946 Ry
     estimated scf accuracy    <      38.12674361 Ry

     total magnetization       =    -0.00 Bohr mag/cell
     absolute magnetization    =     5.90 Bohr mag/cell

     iteration # 28     ecut=    60.00 Ry     beta= 0.10
     Davidson diagonalization with overlap

---- Real-time Memory Report at c_bands before calling an iterative solver
          2841 MiB given to the printing process from OS
         -1417 MiB allocation reported by mallinfo(arena+hblkhd)
         28163 MiB available memory on the node where the printing process lives
------------------
     ethr =  4.73E-04,  avg # of iterations =  5.5

     negative rho (up, down):  2.714E-06 2.102E-06

     total cpu time spent up to now is    28786.4 secs

     total energy              =   -1544.72278490 Ry
     estimated scf accuracy    <      29.86676544 Ry

     total magnetization       =    -0.00 Bohr mag/cell
     absolute magnetization    =     5.20 Bohr mag/cell

     iteration # 29     ecut=    60.00 Ry     beta= 0.10
     Davidson diagonalization with overlap

---- Real-time Memory Report at c_bands before calling an iterative solver
          2841 MiB given to the printing process from OS
         -1417 MiB allocation reported by mallinfo(arena+hblkhd)
         28167 MiB available memory on the node where the printing process lives
------------------
     c_bands:  1 eigenvalues not converged
     ethr =  4.73E-04,  avg # of iterations =  7.1

     negative rho (up, down):  2.495E-06 2.114E-06

     total cpu time spent up to now is    29758.1 secs

     total energy              =   -1543.03093803 Ry
     estimated scf accuracy    <      27.43227177 Ry

     total magnetization       =    -0.00 Bohr mag/cell
     absolute magnetization    =     4.67 Bohr mag/cell

     iteration # 30     ecut=    60.00 Ry     beta= 0.10
     Davidson diagonalization with overlap

---- Real-time Memory Report at c_bands before calling an iterative solver
          2841 MiB given to the printing process from OS
         -1417 MiB allocation reported by mallinfo(arena+hblkhd)
         28244 MiB available memory on the node where the printing process lives
------------------
     ethr =  4.73E-04,  avg # of iterations =  8.8

     negative rho (up, down):  8.797E-08 8.802E-08

     total cpu time spent up to now is    31053.6 secs

     total energy              =   -1541.89383352 Ry
     estimated scf accuracy    <      10.45634922 Ry

     total magnetization       =     0.00 Bohr mag/cell
     absolute magnetization    =     5.70 Bohr mag/cell

     iteration # 31     ecut=    60.00 Ry     beta= 0.10
     Davidson diagonalization with overlap

---- Real-time Memory Report at c_bands before calling an iterative solver
          2841 MiB given to the printing process from OS
         -1417 MiB allocation reported by mallinfo(arena+hblkhd)
         28246 MiB available memory on the node where the printing process lives
------------------
     ethr =  4.73E-04,  avg # of iterations =  9.7

     negative rho (up, down):  1.067E-07 1.078E-07

     total cpu time spent up to now is    32351.3 secs

     total energy              =   -1542.37327836 Ry
     estimated scf accuracy    <       1.34586526 Ry

     total magnetization       =    -0.00 Bohr mag/cell
     absolute magnetization    =     6.53 Bohr mag/cell

     iteration # 32     ecut=    60.00 Ry     beta= 0.10
     Davidson diagonalization with overlap

---- Real-time Memory Report at c_bands before calling an iterative solver
          2841 MiB given to the printing process from OS
         -1417 MiB allocation reported by mallinfo(arena+hblkhd)
         28244 MiB available memory on the node where the printing process lives
------------------
     ethr =  4.73E-04,  avg # of iterations =  1.1

     negative rho (up, down):  9.600E-08 9.713E-08

     total cpu time spent up to now is    33146.5 secs

     total energy              =   -1542.41802711 Ry
     estimated scf accuracy    <       1.27808001 Ry

     total magnetization       =    -0.00 Bohr mag/cell
     absolute magnetization    =     6.73 Bohr mag/cell

     iteration # 33     ecut=    60.00 Ry     beta= 0.10
     Davidson diagonalization with overlap

---- Real-time Memory Report at c_bands before calling an iterative solver
          2841 MiB given to the printing process from OS
         -1417 MiB allocation reported by mallinfo(arena+hblkhd)
         28251 MiB available memory on the node where the printing process lives
------------------
     ethr =  4.73E-04,  avg # of iterations =  1.2

     negative rho (up, down):  3.183E-08 3.156E-08

     total cpu time spent up to now is    33945.9 secs

     total energy              =   -1542.35103687 Ry
     estimated scf accuracy    <       1.60383669 Ry

     total magnetization       =     0.00 Bohr mag/cell
     absolute magnetization    =     6.76 Bohr mag/cell

     iteration # 34     ecut=    60.00 Ry     beta= 0.10
     Davidson diagonalization with overlap

---- Real-time Memory Report at c_bands before calling an iterative solver
          2841 MiB given to the printing process from OS
         -1417 MiB allocation reported by mallinfo(arena+hblkhd)
         28247 MiB available memory on the node where the printing process lives
------------------
     ethr =  4.73E-04,  avg # of iterations =  1.7

     negative rho (up, down):  1.585E-08 1.577E-08

     total cpu time spent up to now is    34766.7 secs

     total energy              =   -1542.40216421 Ry
     estimated scf accuracy    <       1.21008486 Ry

     total magnetization       =    -0.00 Bohr mag/cell
     absolute magnetization    =     6.81 Bohr mag/cell

     iteration # 35     ecut=    60.00 Ry     beta= 0.10
     Davidson diagonalization with overlap

---- Real-time Memory Report at c_bands before calling an iterative solver
          2841 MiB given to the printing process from OS
         -1417 MiB allocation reported by mallinfo(arena+hblkhd)
         28248 MiB available memory on the node where the printing process lives
------------------
     ethr =  4.73E-04,  avg # of iterations =  1.0

     negative rho (up, down):  7.810E-07 7.801E-07

     total cpu time spent up to now is    35558.6 secs

     total energy              =   -1542.14011757 Ry
     estimated scf accuracy    <       1.34261944 Ry

     total magnetization       =    -0.00 Bohr mag/cell
     absolute magnetization    =     6.91 Bohr mag/cell

     iteration # 36     ecut=    60.00 Ry     beta= 0.10
     Davidson diagonalization with overlap

---- Real-time Memory Report at c_bands before calling an iterative solver
          2841 MiB given to the printing process from OS
         -1417 MiB allocation reported by mallinfo(arena+hblkhd)
         28248 MiB available memory on the node where the printing process lives
------------------
     ethr =  4.73E-04,  avg # of iterations =  9.9

     total cpu time spent up to now is    36725.4 secs

     total energy              =   -1542.21512846 Ry
     estimated scf accuracy    <       4.40379119 Ry

     total magnetization       =     0.00 Bohr mag/cell
     absolute magnetization    =     8.45 Bohr mag/cell

     iteration # 37     ecut=    60.00 Ry     beta= 0.10
     Davidson diagonalization with overlap

---- Real-time Memory Report at c_bands before calling an iterative solver
          2841 MiB given to the printing process from OS
         -1417 MiB allocation reported by mallinfo(arena+hblkhd)
         28247 MiB available memory on the node where the printing process lives
------------------
     ethr =  4.73E-04,  avg # of iterations =  8.5

     negative rho (up, down):  1.965E-08 1.985E-08

     total cpu time spent up to now is    37727.9 secs

     total energy              =   -1542.30724666 Ry
     estimated scf accuracy    <       0.62640406 Ry

     total magnetization       =    -0.00 Bohr mag/cell
     absolute magnetization    =     7.90 Bohr mag/cell

     iteration # 38     ecut=    60.00 Ry     beta= 0.10
     Davidson diagonalization with overlap

---- Real-time Memory Report at c_bands before calling an iterative solver
          2841 MiB given to the printing process from OS
         -1417 MiB allocation reported by mallinfo(arena+hblkhd)
         28245 MiB available memory on the node where the printing process lives
------------------
     ethr =  3.26E-04,  avg # of iterations =  4.1

     negative rho (up, down):  5.430E-08 5.465E-08

     total cpu time spent up to now is    38583.6 secs

     total energy              =   -1542.31139254 Ry
     estimated scf accuracy    <       0.32843612 Ry

     total magnetization       =    -0.00 Bohr mag/cell
     absolute magnetization    =     7.76 Bohr mag/cell

     iteration # 39     ecut=    60.00 Ry     beta= 0.10
     Davidson diagonalization with overlap

---- Real-time Memory Report at c_bands before calling an iterative solver
          2841 MiB given to the printing process from OS
         -1417 MiB allocation reported by mallinfo(arena+hblkhd)
         28243 MiB available memory on the node where the printing process lives
------------------
     ethr =  1.71E-04,  avg # of iterations =  7.4

     negative rho (up, down):  1.603E-08 1.611E-08

     total cpu time spent up to now is    39595.8 secs

     total energy              =   -1542.35162346 Ry
     estimated scf accuracy    <       0.13048349 Ry

     total magnetization       =     0.00 Bohr mag/cell
     absolute magnetization    =     6.86 Bohr mag/cell

     iteration # 40     ecut=    60.00 Ry     beta= 0.10
     Davidson diagonalization with overlap

---- Real-time Memory Report at c_bands before calling an iterative solver
          2841 MiB given to the printing process from OS
         -1417 MiB allocation reported by mallinfo(arena+hblkhd)
         28243 MiB available memory on the node where the printing process lives
------------------
     ethr =  6.80E-05,  avg # of iterations =  2.0

     negative rho (up, down):  2.262E-08 2.266E-08

     total cpu time spent up to now is    40445.5 secs

     total energy              =   -1542.34713885 Ry
     estimated scf accuracy    <       0.10175494 Ry

     total magnetization       =     0.00 Bohr mag/cell
     absolute magnetization    =     6.94 Bohr mag/cell

     iteration # 41     ecut=    60.00 Ry     beta= 0.10
     Davidson diagonalization with overlap

---- Real-time Memory Report at c_bands before calling an iterative solver
          2841 MiB given to the printing process from OS
         -1417 MiB allocation reported by mallinfo(arena+hblkhd)
         28243 MiB available memory on the node where the printing process lives
------------------
     ethr =  5.30E-05,  avg # of iterations =  8.4

     negative rho (up, down):  1.281E-08 1.286E-08

     total cpu time spent up to now is    41441.6 secs

     total energy              =   -1542.35869177 Ry
     estimated scf accuracy    <       0.17801697 Ry

     total magnetization       =    -0.00 Bohr mag/cell
     absolute magnetization    =     7.42 Bohr mag/cell

     iteration # 42     ecut=    60.00 Ry     beta= 0.10
     Davidson diagonalization with overlap

---- Real-time Memory Report at c_bands before calling an iterative solver
          2841 MiB given to the printing process from OS
         -1417 MiB allocation reported by mallinfo(arena+hblkhd)
         28251 MiB available memory on the node where the printing process lives
------------------
     ethr =  5.30E-05,  avg # of iterations =  1.2

     total cpu time spent up to now is    42241.6 secs

     total energy              =   -1542.35529313 Ry
     estimated scf accuracy    <       0.17107688 Ry

     total magnetization       =    -0.00 Bohr mag/cell
     absolute magnetization    =     7.40 Bohr mag/cell

     iteration # 43     ecut=    60.00 Ry     beta= 0.10
     Davidson diagonalization with overlap

---- Real-time Memory Report at c_bands before calling an iterative solver
          2841 MiB given to the printing process from OS
         -1417 MiB allocation reported by mallinfo(arena+hblkhd)
         28266 MiB available memory on the node where the printing process lives
------------------
     ethr =  5.30E-05,  avg # of iterations =  1.9

     total cpu time spent up to now is    43066.2 secs

     total energy              =   -1542.35473114 Ry
     estimated scf accuracy    <       0.14432903 Ry

     total magnetization       =     0.00 Bohr mag/cell
     absolute magnetization    =     7.36 Bohr mag/cell

     iteration # 44     ecut=    60.00 Ry     beta= 0.10
     Davidson diagonalization with overlap

---- Real-time Memory Report at c_bands before calling an iterative solver
          2841 MiB given to the printing process from OS
         -1417 MiB allocation reported by mallinfo(arena+hblkhd)
         28250 MiB available memory on the node where the printing process lives
------------------
