structure.lmp (written by ASE) 

112 	 atoms 
3  atom types
0.0      11.911176960000001  xlo xhi
0.0      10.315381836331902  ylo yhi
0.0      9.7254352626651048  zlo zhi
    -5.9555884799999994     -5.9555884799999994      3.4384606121106347  xy xz yz


Atoms 

     1   1      5.9555884800000012      3.4384606121106343      2.4313588156662762
     2   1     -2.9777942399999997      5.1576909181659509      3.6470382234994143
     3   2      4.4666913600000004     0.85961515302765856     0.60783970391656905
     4   2      2.9777942400000006      3.4384606121106338     0.60783970391656905
     5   2      2.9777942400000001      1.7192303060553171      3.0391985195828446
     6   2      1.4888971200000003     0.85961515302765856     0.60783970391656905
     7   3      7.6010163320198405      2.4884758372754838      1.7596181393563657
     8   3      5.9555914577942408      5.3384353194718521      1.7596181393563657
     9   3      5.9555914577942408      3.4384623313409404      4.4465857073136377
    10   3      4.3101665835686411      2.4884758372754838      1.7596181393563657
    11   3     -4.6232220920198399      6.1076756930011014      4.3187788998093239
    12   3     -2.9777972177942407      3.2577162108047326      4.3187788998093239
    13   3     -2.9777972177942407      5.1576891989356453      1.6318113318520526
    14   3     -1.3323723435686403      6.1076756930011014      4.3187788998093239
    15   1     -2.9777942399999997      5.1576909181659518      7.2940764469988286
    16   1 -2.2204460492503131e-15      6.8769212242212685      8.5097558548319672
    17   2       7.444485600000001      2.5788454590829759      5.4705573352491212
    18   2      5.9555884800000021      5.1576909181659509      5.4705573352491212
    19   2      5.9555884800000012      3.4384606121106343      7.9019161509153975
    20   2      4.4666913600000004      2.5788454590829759      5.4705573352491212
    21   3     -1.3323663879801602      4.2077061433308014      6.6223357706889185
    22   3     -2.9777912622057601      7.0576656255271697      6.6223357706889185
    23   3     -2.9777912622057601      5.1576926373962575      9.3093033386461901
    24   3     -4.6232161364313606      4.2077061433308014      6.6223357706889185
    25   3     -1.6454278520198398      7.8269059990564189      9.1814965311418764
    26   3 -2.9777942453416354e-06      4.9769465168600497      9.1814965311418764
    27   3 -2.9777942403885941e-06      6.8769195049909628      6.4945289631846048
    28   3      1.6454218964313605      7.8269059990564189      9.1814965311418764
    29   1     -2.9777942399999997      8.5961515302765861      2.4313588156662762
    30   1 -1.3322676295501878e-15      10.315381836331902      3.6470382234994143
    31   2      7.4444856000000001      6.0173060711936097     0.60783970391656905
    32   2      5.9555884800000012      8.5961515302765843     0.60783970391656905
    33   2      5.9555884800000012      6.8769212242212685      3.0391985195828446
    34   2      4.4666913600000004      6.0173060711936097     0.60783970391656905
    35   3     -1.3323663879801602      7.6461667554414348      1.7596181393563657
    36   3     -2.9777912622057592      10.496126237637803      1.7596181393563657
    37   3     -2.9777912622057596      8.5961532495068909      4.4465857073136377
    38   3     -4.6232161364313606      7.6461667554414348      1.7596181393563657
    39   3     -1.6454278520198404      11.265366611167053      4.3187788998093239
    40   3 -2.9777942395684756e-06      8.4154071289706831      4.3187788998093239
    41   3 -2.9777942410522626e-06      10.315380117101597      1.6318113318520526
    42   3      1.6454218964313596      11.265366611167053      4.3187788998093239
    43   1 -1.7763568394002505e-15      10.315381836331902      7.2940764469988286
    44   1     -8.9333827200000044      12.034612142387219      8.5097558548319672
    45   2     -1.4888971199999994      7.7365363772489273      5.4705573352491212
    46   2     -2.9777942399999993      10.315381836331902      5.4705573352491212
    47   2     -2.9777942399999993      8.5961515302765861      7.9019161509153975
    48   2     -4.4666913599999987      7.7365363772489273      5.4705573352491212
    49   3      1.6454278520198409      9.3653970614967523      6.6223357706889185
    50   3  2.9777942411178573e-06      12.215356543693119      6.6223357706889185
    51   3  2.9777942410497973e-06      10.315383555562208      9.3093033386461901
    52   3     -1.6454218964313598      9.3653970614967523      6.6223357706889185
    53   3      -10.57881057201984      12.984596917222369      9.1814965311418764
    54   3     -8.9333856977942396      10.134637435026001      9.1814965311418764
    55   3     -8.9333856977942396      12.034610423156913      6.4945289631846048
    56   3     -7.2879608235686373      12.984596917222369      9.1814965311418764
    57   1  3.1086244689504383e-15      3.4384606121106343      2.4313588156662762
    58   1      2.9777942399999975      5.1576909181659509      3.6470382234994143
    59   2      10.422279840000002     0.85961515302765856     0.60783970391656905
    60   2      8.9333827200000009      3.4384606121106338     0.60783970391656905
    61   2      8.9333827200000009      1.7192303060553171      3.0391985195828446
    62   2      7.4444856000000001     0.85961515302765856     0.60783970391656905
    63   3      1.6454278520198395      2.4884758372754838      1.7596181393563657
    64   3  2.9777942397855897e-06      5.3384353194718521      1.7596181393563657
    65   3  2.9777942397175297e-06      3.4384623313409404      4.4465857073136377
    66   3     -1.6454218964313607      2.4884758372754838      1.7596181393563657
    67   3      1.3323663879801599      6.1076756930011014      4.3187788998093239
    68   3      2.9777912622057596      3.2577162108047326      4.3187788998093239
    69   3      2.9777912622057623      5.1576891989356453      1.6318113318520526
    70   3      4.6232161364313606      6.1076756930011014      4.3187788998093239
    71   1      2.9777942400000033      5.1576909181659518      7.2940764469988286
    72   1     -5.9555884799999994      6.8769212242212685      8.5097558548319672
    73   2      1.4888971200000027      2.5788454590829759      5.4705573352491212
    74   2  6.6613381477509392e-16      5.1576909181659509      5.4705573352491212
    75   2  3.7747582837255322e-15      3.4384606121106343      7.9019161509153975
    76   2     -1.4888971199999994      2.5788454590829759      5.4705573352491212
    77   3      4.6232220920198426      4.2077061433308014      6.6223357706889185
    78   3      2.9777972177942407      7.0576656255271697      6.6223357706889185
    79   3      2.9777972177942424      5.1576926373962575      9.3093033386461901
    80   3      1.3323723435686421      4.2077061433308014      6.6223357706889185
    81   3     -7.6010163320198396      7.8269059990564189      9.1814965311418764
    82   3     -5.9555914577942399      4.9769465168600497      9.1814965311418764
    83   3     -5.9555914577942408      6.8769195049909628      6.4945289631846048
    84   3     -4.3101665835686429      7.8269059990564189      9.1814965311418764
    85   1       2.977794239999997      8.5961515302765861      2.4313588156662762
    86   1     -5.9555884800000038      10.315381836331902      3.6470382234994143
    87   2      1.4888971200000003      6.0173060711936097     0.60783970391656905
    88   2  1.1102230246251565e-15      8.5961515302765843     0.60783970391656905
    89   2  3.4392260417348554e-15      6.8769212242212685      3.0391985195828446
    90   2     -1.4888971199999994      6.0173060711936097     0.60783970391656905
    91   3      4.6232220920198426      7.6461667554414348      1.7596181393563657
    92   3      2.9777972177942407      10.496126237637803      1.7596181393563657
    93   3      2.9777972177942407      8.5961532495068909      4.4465857073136377
    94   3      1.3323723435686425      7.6461667554414348      1.7596181393563657
    95   3     -7.6010163320198405      11.265366611167053      4.3187788998093239
    96   3     -5.9555914577942399      8.4154071289706831      4.3187788998093239
    97   3     -5.9555914577942417      10.315380117101597      1.6318113318520526
    98   3     -4.3101665835686438      11.265366611167053      4.3187788998093239
    99   1     -5.9555884799999994      10.315381836331902      7.2940764469988286
   100   1     -2.9777942399999984      12.034612142387219      8.5097558548319672
   101   2       4.466691360000004      7.7365363772489273      5.4705573352491212
   102   2      2.9777942400000041      10.315381836331902      5.4705573352491212
   103   2      2.9777942400000041      8.5961515302765861      7.9019161509153975
   104   2       1.488897120000001      7.7365363772489273      5.4705573352491212
   105   3     -4.3101606279801574      9.3653970614967523      6.6223357706889185
   106   3     -5.9555855022057571      12.215356543693119      6.6223357706889185
   107   3     -5.9555855022057571      10.315383555562208      9.3093033386461901
   108   3     -7.6010103764313603      9.3653970614967523      6.6223357706889185
   109   3     -4.6232220920198346      12.984596917222369      9.1814965311418764
   110   3     -2.9777972177942398      10.134637435026001      9.1814965311418764
   111   3     -2.9777972177942345      12.034610423156913      6.4945289631846048
   112   3     -1.3323723435686428      12.984596917222369      9.1814965311418764
