
# --------------------- INITIALIZATION ---------------------
units           metal
atom_style      atomic
boundary        p p p
atom_modify     map array

# --------------------- READ STRUCTURE ---------------------
read_data       structure.lmp
Reading data file ...
  triclinic box = (0 0 0) to (23.822354 20.630764 19.450871) with tilt (11.911177 11.911177 6.8769212)
WARNING: Triclinic box skew is large. LAMMPS will run inefficiently. (src/domain.cpp:221)
  1 by 1 by 1 MPI processor grid
  reading atoms ...
  896 atoms
  read_data CPU = 0.026 seconds

# --------------------- MASSES -----------------------------
mass 1 6.941       # Li
mass 2 54.938049   # Mn
mass 3 15.9994     # O

# --------------------- GROUPS -----------------------------
group Li type 1
128 atoms in group Li
group Mn type 2
256 atoms in group Mn
group O  type 3
512 atoms in group O

# --------------------- FORCE FIELD ------------------------
pair_style      meam
pair_coeff      * * library.meam Li Mn O LiMnO.meam Li Mn O

# --------------------- ENERGY MINIMIZATION ----------------
minimize        1.0e-4 1.0e-7 1000 10000
Neighbor list info ...
  update: every = 1 steps, delay = 0 steps, check = yes
  max neighbors/atom: 2000, page size: 100000
  master list distance cutoff = 6.8
  ghost atom cutoff = 6.8
  binsize = 3.4, bins = 15 9 6
  2 neighbor lists, perpetual/occasional/extra = 2 0 0
  (1) pair meam, perpetual
      attributes: full, newton on
      pair build: full/bin/atomonly
      stencil: full/bin/3d
      bin: standard
  (2) pair meam, perpetual, half/full from (1)
      attributes: half, newton on
      pair build: halffull/newton/tri
      stencil: none
      bin: none
Per MPI rank memory allocation (min/avg/max) = 12.26 | 12.26 | 12.26 Mbytes
   Step          Temp          E_pair         E_mol          TotEng         Press     
         0   0             -1706.677       0             -1706.677      -12211.749    
         2   0             -1720.4719      0             -1720.4719     -30739.961    
Loop time of 0.254532 on 1 procs for 2 steps with 896 atoms

100.0% CPU use with 1 MPI tasks x 1 OpenMP threads

Minimization stats:
  Stopping criterion = energy tolerance
  Energy initial, next-to-last, final = 
     -1706.67701229482  -1720.44843675169  -1720.47194544603
  Force two-norm initial, final = 17.964567 0.042484055
  Force max component initial, final = 0.79393726 0.0018780585
  Final line search alpha, max atom move = 1 0.0018780585
  Iterations, force evaluations = 2 4

MPI task timing breakdown:
Section |  min time  |  avg time  |  max time  |%varavg| %total
---------------------------------------------------------------
Pair    | 0.25403    | 0.25403    | 0.25403    |   0.0 | 99.80
Neigh   | 0          | 0          | 0          |   0.0 |  0.00
Comm    | 0.00025514 | 0.00025514 | 0.00025514 |   0.0 |  0.10
Output  | 0          | 0          | 0          |   0.0 |  0.00
Modify  | 0          | 0          | 0          |   0.0 |  0.00
Other   |            | 0.0002469  |            |       |  0.10

Nlocal:            896 ave         896 max         896 min
Histogram: 1 0 0 0 0 0 0 0 0 0
Nghost:           3779 ave        3779 max        3779 min
Histogram: 1 0 0 0 0 0 0 0 0 0
Neighs:          54528 ave       54528 max       54528 min
Histogram: 1 0 0 0 0 0 0 0 0 0
FullNghs:       109056 ave      109056 max      109056 min
Histogram: 1 0 0 0 0 0 0 0 0 0

Total # of neighbors = 109056
Ave neighs/atom = 121.71429
Neighbor list builds = 0
Dangerous builds = 0

# --------------------- VELOCITY INIT ---------------------
velocity        all create ${temp} ${seed} mom yes rot yes dist gaussian
velocity        all create 800 ${seed} mom yes rot yes dist gaussian
velocity        all create 800 12345 mom yes rot yes dist gaussian
timestep        ${dt}
timestep        0.001

# ==========================================================
# STAGE 1: NPT Equilibration (Relax structure at target T & P=0)
# ==========================================================
fix eq all npt temp ${temp} ${temp} 10.0 iso 0.0 0.0 1000.0
fix eq all npt temp 800 ${temp} 10.0 iso 0.0 0.0 1000.0
fix eq all npt temp 800 800 10.0 iso 0.0 0.0 1000.0

thermo          100
thermo_style    custom step temp pe ke etotal press vol

run             ${eqsteps}
run             20000
Per MPI rank memory allocation (min/avg/max) = 11.19 | 11.19 | 11.19 Mbytes
   Step          Temp          PotEng         KinEng         TotEng         Press          Volume    
         2   800           -1720.4719      92.550264     -1627.9217     -20399.075      9559.5846    
       100   338.94116     -1667.0783      39.211367     -1627.867      -1461.899       9559.5845    
       200   413.84885     -1675.7353      47.877275     -1627.8581     -2175.8656      9559.5844    
       300   404.46931     -1674.6407      46.792176     -1627.8485     -2174.2801      9559.5842    
       400   399.16262     -1674.0152      46.178257     -1627.837      -3921.4716      9559.5838    
       500   415.61028     -1675.8978      48.081051     -1627.8167     -3258.9619      9559.5834    
       600   405.25737     -1674.6732      46.883346     -1627.7898     -3362.9605      9559.5829    
       700   423.7983      -1676.7914      49.028306     -1627.7631     -3594.5201      9559.5824    
       800   404.50708     -1674.5237      46.796546     -1627.7271     -3160.9413      9559.5817    
       900   412.50472     -1675.4108      47.721776     -1627.689      -4223.2111      9559.5809    
      1000   409.10379     -1674.97        47.328329     -1627.6417     -3592.2193      9559.58      
      1100   407.67401     -1674.7568      47.162922     -1627.5939     -3261.5036      9559.5791    
