
# --------------------- INITIALIZATION ---------------------
units           metal
atom_style      atomic
boundary        p p p
atom_modify     map array

# --------------------- READ STRUCTURE ---------------------
read_data       structure.lmp
Reading data file ...
  triclinic box = (0 0 0) to (23.822354 20.630764 19.450871) with tilt (11.911177 11.911177 6.8769212)
WARNING: Triclinic box skew is large. LAMMPS will run inefficiently. (src/domain.cpp:221)
  1 by 1 by 1 MPI processor grid
  reading atoms ...
  896 atoms
  read_data CPU = 0.024 seconds

# --------------------- MASSES -----------------------------
mass 1 6.941       # Li
mass 2 54.938049   # Mn
mass 3 15.9994     # O

# --------------------- GROUPS -----------------------------
group Li type 1
128 atoms in group Li
group Mn type 2
256 atoms in group Mn
group O  type 3
512 atoms in group O

# --------------------- FORCE FIELD ------------------------
pair_style      meam
pair_coeff      * * library.meam Li Mn O LiMnO.meam Li Mn O

# --------------------- ENERGY MINIMIZATION ----------------
minimize        1.0e-4 1.0e-7 1000 10000
Neighbor list info ...
  update: every = 1 steps, delay = 0 steps, check = yes
  max neighbors/atom: 2000, page size: 100000
  master list distance cutoff = 6.8
  ghost atom cutoff = 6.8
  binsize = 3.4, bins = 15 9 6
  2 neighbor lists, perpetual/occasional/extra = 2 0 0
  (1) pair meam, perpetual
      attributes: full, newton on
      pair build: full/bin/atomonly
      stencil: full/bin/3d
      bin: standard
  (2) pair meam, perpetual, half/full from (1)
      attributes: half, newton on
      pair build: halffull/newton/tri
      stencil: none
      bin: none
Per MPI rank memory allocation (min/avg/max) = 12.26 | 12.26 | 12.26 Mbytes
   Step          Temp          E_pair         E_mol          TotEng         Press     
         0   0             -1706.677       0             -1706.677      -12211.749    
         2   0             -1720.4719      0             -1720.4719     -30739.961    
Loop time of 0.255377 on 1 procs for 2 steps with 896 atoms

100.0% CPU use with 1 MPI tasks x 1 OpenMP threads

Minimization stats:
  Stopping criterion = energy tolerance
  Energy initial, next-to-last, final = 
     -1706.67701229482  -1720.44843675169  -1720.47194544603
  Force two-norm initial, final = 17.964567 0.042484055
  Force max component initial, final = 0.79393726 0.0018780585
  Final line search alpha, max atom move = 1 0.0018780585
  Iterations, force evaluations = 2 4

MPI task timing breakdown:
Section |  min time  |  avg time  |  max time  |%varavg| %total
---------------------------------------------------------------
Pair    | 0.25488    | 0.25488    | 0.25488    |   0.0 | 99.81
Neigh   | 0          | 0          | 0          |   0.0 |  0.00
Comm    | 0.00025322 | 0.00025322 | 0.00025322 |   0.0 |  0.10
Output  | 0          | 0          | 0          |   0.0 |  0.00
Modify  | 0          | 0          | 0          |   0.0 |  0.00
Other   |            | 0.0002399  |            |       |  0.09

Nlocal:            896 ave         896 max         896 min
Histogram: 1 0 0 0 0 0 0 0 0 0
Nghost:           3779 ave        3779 max        3779 min
Histogram: 1 0 0 0 0 0 0 0 0 0
Neighs:          54528 ave       54528 max       54528 min
Histogram: 1 0 0 0 0 0 0 0 0 0
FullNghs:       109056 ave      109056 max      109056 min
Histogram: 1 0 0 0 0 0 0 0 0 0

Total # of neighbors = 109056
Ave neighs/atom = 121.71429
Neighbor list builds = 0
Dangerous builds = 0

# --------------------- VELOCITY INIT ---------------------
velocity        all create ${temp} ${seed} mom yes rot yes dist gaussian
velocity        all create 1400 ${seed} mom yes rot yes dist gaussian
velocity        all create 1400 12345 mom yes rot yes dist gaussian
timestep        ${dt}
timestep        0.001

# ==========================================================
# STAGE 1: NPT Equilibration (Relax structure at target T & P=0)
# ==========================================================
fix eq all npt temp ${temp} ${temp} 10.0 iso 0.0 0.0 1000.0
fix eq all npt temp 1400 ${temp} 10.0 iso 0.0 0.0 1000.0
fix eq all npt temp 1400 1400 10.0 iso 0.0 0.0 1000.0

thermo          100
thermo_style    custom step temp pe ke etotal press vol

run             ${eqsteps}
run             20000
Per MPI rank memory allocation (min/avg/max) = 11.19 | 11.19 | 11.19 Mbytes
   Step          Temp          PotEng         KinEng         TotEng         Press          Volume    
         2   1400          -1720.4719      161.96296     -1558.509      -12643.411      9559.5846    
       100   595.78394     -1627.3448      68.924951     -1558.4198      10997.835      9559.5847    
       200   688.60256     -1638.0765      79.662936     -1558.4136      14903.132      9559.5849    
       300   652.98573     -1633.9331      75.542501     -1558.3906      15645.081      9559.5854    
       400   687.48785     -1637.9024      79.533977     -1558.3684      10645.25       9559.5861    
       500   655.5955      -1634.1752      75.844421     -1558.3308      12620.718      9559.587     
       600   653.77793     -1633.9199      75.63415      -1558.2857      11138.241      9559.5881    
       700   708.30952     -1640.1741      81.942792     -1558.2313      11967.328      9559.5894    
       800   675.55921     -1636.3256      78.153979     -1558.1716      14662.46       9559.5909    
       900   676.87861     -1636.4173      78.306617     -1558.1107      13304.595      9559.5926    
      1000   690.39974     -1637.9062      79.870848     -1558.0353      13097.655      9559.5945    
      1100   690.62198     -1637.8435      79.896558     -1557.9469      10224.064      9559.5966    
      1200   674.19643     -1635.8596      77.996322     -1557.8633      10935.913      9559.5989    
      1300   681.21793     -1636.5649      78.808624     -1557.7563      10568.738      9559.6013    
      1400   687.65532     -1637.2085      79.553352     -1557.6552      10459.148      9559.604     
      1500   700.72945     -1638.5999      81.065869     -1557.5341      11205.646      9559.6068    
      1600   674.04682     -1635.3847      77.979013     -1557.4057      13141.075      9559.6097    
      1700   680.80773     -1636.0317      78.761169     -1557.2706      11241.468      9559.6129    
      1800   658.29961     -1633.2879      76.157253     -1557.1307      11278.138      9559.6162    
      1900   675.58203     -1635.1493      78.156619     -1556.9927      9119.6222      9559.6197    
      2000   671.51948     -1634.5278      77.686631     -1556.8411      8591.0413      9559.6233    
      2100   681.15103     -1635.476       78.800885     -1556.6751      8784.7308      9559.6271    
      2200   689.85943     -1636.3169      79.808341     -1556.5085      8508.56        9559.631     
      2300   685.03792     -1635.5933      79.250551     -1556.3428      10071.209      9559.6351    
      2400   673.02109     -1634.0303      77.860349     -1556.1699      10425.268      9559.6393    
      2500   645.95168     -1630.7235      74.728748     -1555.9947      10453.346      9559.6437    
      2600   696.81212     -1636.4451      80.612682     -1555.8325      9712.6325      9559.6482    
      2700   673.43286     -1633.5649      77.907987     -1555.6569      4895.1614      9559.6529    
      2800   675.00456     -1633.5715      78.089812     -1555.4817      7300.5066      9559.6576    
      2900   690.22936     -1635.164       79.851137     -1555.3129      880.78475      9559.6625    
      3000   668.44931     -1632.4578      77.33145      -1555.1264      8191.2373      9559.6674    
      3100   708.38037     -1636.9078      81.950987     -1554.9568      5812.9086      9559.6725    
      3200   710.33929     -1636.9563      82.17761      -1554.7787      4107.3659      9559.6776    
      3300   691.66811     -1634.6005      80.017583     -1554.5829      4778.9543      9559.6829    
      3400   707.14157     -1636.2144      81.807674     -1554.4067      7514.5308      9559.6882    
      3500   710.31001     -1636.39        82.174224     -1554.2158      3840.7515      9559.6936    
      3600   680.38724     -1632.7702      78.712523     -1554.0577      4646.2381      9559.6991    
      3700   703.5762      -1635.2723      81.395203     -1553.8771      3343.8893      9559.7046    
      3800   686.9857      -1633.1927      79.475885     -1553.7168     -453.18482      9559.7102    
      3900   717.57674     -1636.5611      83.014895     -1553.5462      1683.2949      9559.7159    
      4000   700.91444     -1634.462       81.08727      -1553.3747     -1417.7759      9559.7215    
      4100   697.82375     -1633.9174      80.729716     -1553.1877      1519.6258      9559.7272    
      4200   701.61295     -1634.1946      81.16808      -1553.0266      2305.6417      9559.733     
      4300   705.91194     -1634.5417      81.665421     -1552.8763      1572.3651      9559.7388    
      4400   712.9403      -1635.2056      82.478516     -1552.7271     -790.56572      9559.7445    
      4500   693.53553     -1632.8036      80.233621     -1552.57        675.22636      9559.7503    
      4600   710.17501     -1634.5525      82.158605     -1552.3939     -2428.0676      9559.7561    
      4700   732.11157     -1636.9533      84.696399     -1552.2569      831.97536      9559.7619    
      4800   696.81995     -1632.6947      80.613588     -1552.0811     -5265.1077      9559.7677    
      4900   716.99007     -1634.8833      82.947025     -1551.9362     -2808.9072      9559.7734    
      5000   701.72952     -1632.9774      81.181565     -1551.7958     -2788.9699      9559.779     
      5100   727.02704     -1635.7422      84.108181     -1551.634      -1642.6897      9559.7847    
      5200   713.93085     -1634.0687      82.59311      -1551.4755     -2402.8595      9559.7902    
      5300   719.0811      -1634.5127      83.188932     -1551.3237     -5137.2192      9559.7958    
      5400   715.3085      -1633.9119      82.752488     -1551.1594     -7279.6068      9559.8012    
      5500   726.22562     -1635.0188      84.015466     -1551.0033     -7152.2898      9559.8066    
      5600   740.86154     -1636.555       85.708664     -1550.8463     -6008.6514      9559.8119    
      5700   733.89482     -1635.5685      84.902699     -1550.6658     -8629.0165      9559.8171    
      5800   716.88887     -1633.4356      82.935318     -1550.5003     -8172.1152      9559.8223    
      5900   732.22757     -1635.0485      84.709818     -1550.3387     -6997.9961      9559.8273    
      6000   743.54678     -1636.1803      86.019313     -1550.161      -7191.5414      9559.8322    
      6100   745.79494     -1636.2794      86.279398     -1550          -6118.0929      9559.8369    
      6200   751.53034     -1636.7438      86.942914     -1549.8009     -2273.0791      9559.8416    
      6300   736.39896     -1634.8185      85.192398     -1549.6262     -3914.8299      9559.8461    
      6400   735.82139     -1634.584       85.12558      -1549.4584     -5526.6881      9559.8506    
      6500   747.25922     -1635.7351      86.448797     -1549.2863     -8645.7801      9559.855     
      6600   736.29785     -1634.2777      85.180701     -1549.097      -8439.1308      9559.8592    
      6700   736.84153     -1634.1488      85.243598     -1548.9052     -13109.328      9559.8633    
      6800   723.28421     -1632.4085      83.675181     -1548.7333     -9961.974       9559.8673    
      6900   750.44688     -1635.3569      86.817571     -1548.5394     -13854.69       9559.871     
      7000   751.46662     -1635.3054      86.935542     -1548.3699     -11241.284      9559.8747    
      7100   736.80225     -1633.4181      85.239053     -1548.179      -7235.277       9559.8781    
      7200   736.95753     -1633.2372      85.257017     -1547.9802     -8227.8785      9559.8814    
      7300   767.33848     -1636.5784      88.771724     -1547.8067     -11821.215      9559.8846    
      7400   755.30363     -1635.0071      87.379437     -1547.6277     -9456.0206      9559.8876    
      7500   758.46456     -1635.1563      87.745119     -1547.4111     -8278.2188      9559.8905    
      7600   773.48844     -1636.6711      89.483199     -1547.1879     -10453.139      9559.8932    
      7700   766.81066     -1635.6964      88.710661     -1546.9857     -8065.9986      9559.8958    
      7800   774.44084     -1636.3445      89.59338      -1546.7511     -8252.0539      9559.8982    
      7900   765.06599     -1635.0452      88.508824     -1546.5363     -13588.4        9559.9004    
      8000   777.85347     -1636.326       89.98818      -1546.3378     -13386.805      9559.9025    
      8100   777.54391     -1636.0698      89.952367     -1546.1175     -9265.7327      9559.9044    
      8200   783.4531      -1636.5511      90.635989     -1545.9151     -11934.446      9559.9062    
      8300   818.0855      -1640.3274      94.642536     -1545.6849     -13078.162      9559.9078    
      8400   761.00281     -1633.4973      88.038763     -1545.4586     -11023.757      9559.9092    
      8500   786.64563     -1636.2132      91.005325     -1545.2079     -12790.685      9559.9105    
      8600   754.13881     -1632.2363      87.244683     -1544.9917     -6384.7155      9559.9115    
      8700   774.43572     -1634.3581      89.592788     -1544.7653     -15022.133      9559.9125    
      8800   776.58027     -1634.3689      89.840886     -1544.528      -11863.307      9559.9132    
      8900   755.6036      -1631.6824      87.414141     -1544.2683     -7878.5646      9559.9138    
      9000   780.56545     -1634.3731      90.301922     -1544.0712     -11356.877      9559.9143    
      9100   785.00521     -1634.6431      90.815549     -1543.8275     -14417.912      9559.9145    
      9200   790.26689     -1635.0262      91.424262     -1543.602      -15228.658      9559.9146    
      9300   806.85224     -1636.7201      93.342984     -1543.3771     -14029.84       9559.9145    
      9400   776.52003     -1632.9861      89.833917     -1543.1522     -9215.498       9559.9141    
      9500   794.54867     -1634.8533      91.919612     -1542.9337     -14151.193      9559.9136    
      9600   771.46676     -1631.9349      89.249315     -1542.6856     -9952.45        9559.9129    
      9700   777.12843     -1632.3636      89.904301     -1542.4593     -8997.724       9559.912     
      9800   801.77093     -1634.986       92.755139     -1542.2308     -14466.122      9559.911     
      9900   763.35001     -1630.2933      88.310306     -1541.9829     -8391.0004      9559.9097    
     10000   796.13588     -1633.8719      92.103232     -1541.7687     -10930.703      9559.9083    
     10100   793.78648     -1633.3861      91.831436     -1541.5546     -11697.716      9559.9067    
     10200   790.05935     -1632.7435      91.400252     -1541.3432     -10847.114      9559.905     
     10300   786.81008     -1632.0913      91.02435      -1541.0669     -11277.87       9559.903     
     10400   801.88693     -1633.5935      92.768558     -1540.825      -10132.004      9559.9009    
     10500   810.3328      -1634.3438      93.745642     -1540.5981     -15315.626      9559.8986    
     10600   817.64592     -1634.9503      94.591682     -1540.3586     -15567.659      9559.8961    
     10700   808.61534     -1633.6393      93.546953     -1540.0924     -13608.982      9559.8934    
     10800   793.75055     -1631.7027      91.827279     -1539.8754     -9879.1121      9559.8906    
     10900   795.33241     -1631.6577      92.01028      -1539.6474     -10101.068      9559.8876    
     11000   820.17532     -1634.2911      94.884303     -1539.4067     -11693.465      9559.8844    
     11100   796.70676     -1631.3269      92.169276     -1539.1576     -7628.4749      9559.8811    
     11200   799.59401     -1631.4279      92.503296     -1538.9246     -7115.2404      9559.8776    
     11300   806.28107     -1631.9458      93.276907     -1538.6689     -7898.7791      9559.874     
     11400   819.33224     -1633.1991      94.786768     -1538.4123     -5480.9155      9559.8702    
     11500   801.8142      -1630.9071      92.760145     -1538.1469     -10517.23       9559.8662    
     11600   804.33499     -1630.9528      93.051769     -1537.9011     -12000.354      9559.8621    
     11700   819.97232     -1632.5091      94.860818     -1537.6483     -12562.374      9559.8577    
     11800   801.65689     -1630.1227      92.741946     -1537.3807     -9499.6164      9559.8532    
     11900   822.94419     -1632.3418      95.204628     -1537.1372     -12462.484      9559.8486    
     12000   809.37396     -1630.5414      93.634716     -1536.9067     -10625.429      9559.8437    
     12100   791.76281     -1628.2563      91.597321     -1536.659      -10695.684      9559.8387    
     12200   821.99089     -1631.5047      95.094342     -1536.4104     -12708.788      9559.8336    
     12300   815.09187     -1630.4606      94.29621      -1536.1644     -10875.279      9559.8282    
     12400   830.68164     -1631.9861      96.099756     -1535.8863     -10799.574      9559.8227    
     12500   850.58169     -1634.0311      98.40195      -1535.6292     -12509.283      9559.817     
     12600   821.43387     -1630.3792      95.029902     -1535.3493     -10917.014      9559.8112    
     12700   830.7658      -1631.2343      96.109492     -1535.1248     -13573.375      9559.8052    
     12800   809.91333     -1628.5563      93.697116     -1534.8592     -10026.809      9559.799     
     12900   855.17643     -1633.5732      98.933505     -1534.6397     -15369.478      9559.7926    
     13000   826.90043     -1630.0425      95.662316     -1534.3802     -12891.359      9559.7862    
     13100   821.71119     -1629.2074      95.061984     -1534.1454     -11277.029      9559.7795    
     13200   843.7575      -1631.5066      97.612474     -1533.8942     -11308.807      9559.7728    
     13300   828.06876     -1629.4197      95.797478     -1533.6222     -13416.473      9559.7658    
     13400   842.54577     -1630.8485      97.472292     -1533.3762     -11222.117      9559.7587    
     13500   806.76151     -1626.4294      93.332488     -1533.0969     -6219.3625      9559.7515    
     13600   857.73484     -1632.0902      99.229482     -1532.8607     -13414.908      9559.7441    
     13700   824.65079     -1627.9968      95.40206      -1532.5948     -12126.108      9559.7366    
     13800   854.98965     -1631.2881      98.911897     -1532.3762     -11109.339      9559.7289    
     13900   820.88634     -1627.093       94.966559     -1532.1265     -9062.6331      9559.7211    
     14000   826.8287      -1627.4989      95.654018     -1531.8448     -11691.555      9559.7131    
     14100   859.85415     -1631.0371      99.47466      -1531.5624     -11155.385      9559.7049    
     14200   839.91798     -1628.4455      97.168289     -1531.2772     -9202.9423      9559.6966    
     14300   844.95655     -1628.7641      97.75119      -1531.0129     -13815.962      9559.6882    
     14400   818.34237     -1625.4168      94.672253     -1530.7445     -10348.904      9559.6796    
     14500   842.02115     -1627.8765      97.4116       -1530.4649     -8592.0106      9559.6709    
     14600   823.92305     -1625.5341      95.31787      -1530.2163     -5837.4329      9559.6621    
     14700   835.96281     -1626.6561      96.710723     -1529.9454     -6345.5029      9559.6531    
     14800   854.38451     -1628.5361      98.84189      -1529.6942     -7670.7891      9559.644     
     14900   815.35705     -1623.764       94.326888     -1529.4371     -6144.33        9559.6349    
     15000   838.70433     -1626.1843      97.027884     -1529.1564     -7057.2149      9559.6256    
     15100   853.37528     -1627.6334      98.725135     -1528.9083     -13004.207      9559.6162    
     15200   853.01198     -1627.3507      98.683104     -1528.6676     -9436.8223      9559.6067    
     15300   862.48995     -1628.1609      99.77959      -1528.3813     -7431.8198      9559.5971    
     15400   869.35273     -1628.6785      100.57353     -1528.105      -12005.813      9559.5873    
     15500   856.1003      -1626.8918      99.040386     -1527.8514     -9783.0404      9559.5775    
     15600   849.40693     -1625.8461      98.266044     -1527.5801     -8455.891       9559.5674    
     15700   854.90863     -1626.2263      98.902524     -1527.3238     -8413.4995      9559.5573    
     15800   861.28376     -1626.6681      99.640049     -1527.028      -6541.8505      9559.5471    
     15900   860.47871     -1626.3259      99.546914     -1526.779      -7992.8253      9559.5368    
     16000   894.37678     -1629.9359      103.46851     -1526.4674     -5581.3426      9559.5263    
     16100   847.054       -1624.1545      97.993839     -1526.1607     -5346.9853      9559.5157    
     16200   859.19796     -1625.3099      99.398747     -1525.9112     -3062.1346      9559.5051    
     16300   869.18523     -1626.1672      100.55415     -1525.613      -6760.7956      9559.4943    
     16400   853.20752     -1624.0763      98.705727     -1525.3706     -9812.2592      9559.4835    
     16500   862.25529     -1624.8364      99.752443     -1525.084      -8186.4028      9559.4725    
     16600   860.55226     -1624.3324      99.555423     -1524.777      -8536.1707      9559.4614    
     16700   845.28663     -1622.3157      97.789376     -1524.5264     -7386.6945      9559.4503    
     16800   881.95079     -1626.2503      102.03097     -1524.2193     -4692.9988      9559.439     
     16900   872.95547     -1624.9511      100.99032     -1523.9608     -7833.2614      9559.4276    
     17000   867.7185      -1624.0551      100.38447     -1523.6707     -5530.2063      9559.4161    
     17100   853.20459     -1622.079       98.705388     -1523.3736     -6010.4097      9559.4046    
     17200   858.10009     -1622.3758      99.271737     -1523.1041     -8013.8607      9559.3929    
     17300   893.24644     -1626.134       103.33774     -1522.7963     -11076.663      9559.3812    
     17400   883.91991     -1624.7719      102.25878     -1522.5131     -8659.093       9559.3693    
     17500   881.86908     -1624.2495      102.02152     -1522.2279     -3686.8523      9559.3574    
     17600   862.64536     -1621.7033      99.79757      -1521.9057     -3109.8328      9559.3454    
     17700   879.27848     -1623.3441      101.72182     -1521.6223     -6789.3379      9559.3333    
     17800   886.15919     -1623.8575      102.51783     -1521.3397     -3944.4058      9559.3211    
     17900   869.51789     -1621.6477      100.59264     -1521.0551     -317.77259      9559.3088    
     18000   890.77756     -1623.828       103.05212     -1520.7759     -4543.3935      9559.2965    
     18100   877.12457     -1621.9615      101.47264     -1520.4889     -3867.0847      9559.2841    
     18200   894.28557     -1623.6335      103.45796     -1520.1755     -5634.2523      9559.2715    
     18300   896.94256     -1623.6364      103.76534     -1519.8711     -5116.1676      9559.2589    
     18400   877.44961     -1621.1471      101.51024     -1519.6369     -330.20916      9559.2462    
     18500   927.16229     -1626.5875      107.26139     -1519.3261     -8869.0447      9559.2335    
     18600   864.71983     -1619.0495      100.03756     -1519.0119     -5017.2607      9559.2206    
     18700   886.17407     -1621.2537      102.51955     -1518.7341     -6373.7301      9559.2077    
     18800   877.01667     -1619.9219      101.46016     -1518.4617     -4821.7013      9559.1948    
     18900   893.14718     -1621.482       103.32626     -1518.1558     -4870.4607      9559.1817    
     19000   887.16058     -1620.4807      102.63368     -1517.8471     -4980.1287      9559.1686    
     19100   894.96319     -1621.0944      103.53635     -1517.5581     -9160.1238      9559.1554    
     19200   912.3596      -1622.8311      105.5489      -1517.2822     -6994.4781      9559.1421    
     19300   903.91617     -1621.556       104.5721      -1516.9839     -4435.1177      9559.1287    
     19400   911.06142     -1622.0737      105.39872     -1516.675      -1377.9741      9559.1153    
     19500   900.33112     -1620.607       104.15735     -1516.4496     -6519.4535      9559.1017    
     19600   888.79797     -1618.9866      102.82311     -1516.1635     -3197.4003      9559.088     
     19700   888.14566     -1618.6461      102.74764     -1515.8984     -3622.7247      9559.0743    
     19800   922.00048     -1622.2748      106.66423     -1515.6106     -4325.0745      9559.0604    
     19900   878.52304     -1616.9263      101.63442     -1515.2919     -2476.9159      9559.0465    
     20000   937.4233      -1623.5478      108.44847     -1515.0993     -5152.6043      9559.0326    
     20002   938.32822     -1623.6601      108.55316     -1515.1069     -5499.1555      9559.0323    
Loop time of 840.164 on 1 procs for 20000 steps with 896 atoms

Performance: 2.057 ns/day, 11.669 hours/ns, 23.805 timesteps/s, 21.329 katom-step/s
100.0% CPU use with 1 MPI tasks x 1 OpenMP threads

MPI task timing breakdown:
Section |  min time  |  avg time  |  max time  |%varavg| %total
---------------------------------------------------------------
Pair    | 834.66     | 834.66     | 834.66     |   0.0 | 99.34
Neigh   | 2.722      | 2.722      | 2.722      |   0.0 |  0.32
Comm    | 0.92262    | 0.92262    | 0.92262    |   0.0 |  0.11
Output  | 0.0078719  | 0.0078719  | 0.0078719  |   0.0 |  0.00
Modify  | 1.4819     | 1.4819     | 1.4819     |   0.0 |  0.18
Other   |            | 0.3738     |            |       |  0.04

Nlocal:            896 ave         896 max         896 min
Histogram: 1 0 0 0 0 0 0 0 0 0
Nghost:           3638 ave        3638 max        3638 min
Histogram: 1 0 0 0 0 0 0 0 0 0
Neighs:          56264 ave       56264 max       56264 min
Histogram: 1 0 0 0 0 0 0 0 0 0
FullNghs:       112528 ave      112528 max      112528 min
Histogram: 1 0 0 0 0 0 0 0 0 0

Total # of neighbors = 112528
Ave neighs/atom = 125.58929
Neighbor list builds = 365
Dangerous builds = 0
unfix           eq

# ==========================================================
# STAGE 2: NVT Production for MSD / Diffusion
# ==========================================================

# ---- Compute MSD ----
compute MSDLi Li msd
compute MSDMn Mn msd
compute MSDO  O  msd
compute eng all pe/atom
compute 1 all property/atom vx vy vz fx fy fz

# ---- Dump trajectory ----
dump myDump1 all custom 100 Dumpfiles/T${temp}/LiMnO_T${temp}_*.dump id type element x y z vx vy vz fx fy fz c_eng
dump myDump1 all custom 100 Dumpfiles/T1400/LiMnO_T${temp}_*.dump id type element x y z vx vy vz fx fy fz c_eng
dump myDump1 all custom 100 Dumpfiles/T1400/LiMnO_T1400_*.dump id type element x y z vx vy vz fx fy fz c_eng
dump_modify myDump1 element Li Mn O

# ---- NVT Dynamics ----
fix prod all nvt temp ${temp} ${temp} 10.0
fix prod all nvt temp 1400 ${temp} 10.0
fix prod all nvt temp 1400 1400 10.0

# ---- Track MSD slopes ----
fix v_Li Li vector 1 c_MSDLi[4]
fix v_Mn Mn vector 1 c_MSDMn[4]
fix v_O  O  vector 1 c_MSDO[4]

variable Li_slope equal slope(f_v_Li)/(6*${dt})
variable Li_slope equal slope(f_v_Li)/(6*0.001)
variable Mn_slope equal slope(f_v_Mn)/(6*${dt})
variable Mn_slope equal slope(f_v_Mn)/(6*0.001)
variable O_slope  equal slope(f_v_O)/(6*${dt})
variable O_slope  equal slope(f_v_O)/(6*0.001)

thermo_style custom step temp pe ke etotal c_MSDLi[4] c_MSDMn[4] c_MSDO[4] v_Li_slope v_Mn_slope v_O_slope

run ${prodsteps}
run 50000
Per MPI rank memory allocation (min/avg/max) = 12.31 | 12.31 | 12.31 Mbytes
   Step          Temp          PotEng         KinEng         TotEng       c_MSDLi[4]     c_MSDMn[4]     c_MSDO[4]      v_Li_slope     v_Mn_slope     v_O_slope   
     20002   938.32822     -1623.6601      108.55316     -1515.1069      1.5839233e-29  5.7727824e-30  1.3609391e-29  1.6666667e+22  1.6666667e+22  1.6666667e+22
     20100   919.46817     -1621.4694      106.37128     -1515.0981      0.1762689      0.19574664     0.19802511     0.31306262     0.36238438     0.41115597   
     20200   888.21118     -1617.8775      102.75522     -1515.1223      0.21998858     0.2695638      0.26710863     0.10872888     0.28017021     0.19294818   
     20300   916.90283     -1621.1729      106.0745      -1515.0984      0.21044228     0.18639241     0.23453864     0.070087509    0.11253229     0.097530282  
     20400   897.33713     -1618.8333      103.81098     -1515.0223      0.21536006     0.208398       0.23316403     0.045520944    0.053240936    0.052953903  
     20500   876.52643     -1616.3541      101.40344     -1514.9506      0.26156038     0.22208065     0.23700901     0.03674716     0.035128256    0.033459101  
     20600   904.70578     -1619.6652      104.66345     -1515.0018      0.28369729     0.23650471     0.2335595      0.040061919    0.02870741     0.023786084  
     20700   951.6183      -1625.0723      110.09066     -1514.9816      0.24543383     0.20137124     0.22346407     0.032580205    0.02073135     0.016162619  
     20800   892.86336     -1618.1588      103.29342     -1514.8653      0.28165161     0.19676547     0.22666985     0.02636575     0.01331853     0.011415506  
     20900   918.66155     -1621.1187      106.27796     -1514.8407      0.26747697     0.19819124     0.21556054     0.023711083    0.0089884444   0.0068388939 
     21000   921.07909     -1621.3093      106.55764     -1514.7517      0.25147002     0.20344815     0.21160526     0.020522937    0.0067531216   0.0042851304 
     21100   914.84261     -1620.4544      105.83616     -1514.6183      0.2750521      0.21393962     0.24012383     0.017968016    0.0053122597   0.0031795737 
     21200   894.92007     -1618.0814      103.53136     -1514.55        0.27573539     0.21048481     0.230982       0.01643388     0.0051282393   0.0034265668 
     21300   892.61491     -1617.7216      103.26468     -1514.4569      0.29477873     0.19865685     0.23230707     0.01561641     0.003825561    0.0027332187 
     21400   908.07767     -1619.3746      105.05354     -1514.3211      0.31893586     0.19053009     0.21832347     0.014747392    0.0027987838   0.0021840223 
     21500   895.70005     -1617.8319      103.62159     -1514.2103      0.30933073     0.20079396     0.2086007      0.014657065    0.0018804785   0.0013828984 
     21600   904.53516     -1618.7322      104.64371     -1514.0885      0.33471404     0.19834076     0.20790069     0.014966383    0.0015124046   0.0010975514 
     21700   913.98032     -1619.7272      105.7364      -1513.9908      0.33162338     0.19115822     0.21507743     0.014598304    0.00084782536  0.0003683875 
     21800   936.47278     -1622.1992      108.3385      -1513.8607      0.35064564     0.20375069     0.24217121     0.014745907    0.00059598728  0.00040668527
     21900   923.86512     -1620.6161      106.87995     -1513.7361      0.38231521     0.20666065     0.22287192     0.014882683    0.00074406188  0.00071760116
     22000   920.26676     -1620.0672      106.46366     -1513.6035      0.32981239     0.20941286     0.22857527     0.014707104    0.00073091609  0.00087312388
     22100   936.20127     -1621.7656      108.30709     -1513.4585      0.3551414      0.19408873     0.22294934     0.014256708    0.00060588867  0.00069623535
     22200   923.25516     -1620.1294      106.80939     -1513.32        0.36866726     0.20361944     0.22715852     0.01390412     0.00046771677  0.00065382119
     22300   903.24572     -1617.6535      104.49454     -1513.159       0.35968876     0.22518902     0.24489153     0.013460489    0.00067095959  0.0008036285 
     22400   910.64597     -1618.3023      105.35066     -1512.9517      0.3337158      0.20958573     0.21977931     0.01282619     0.00082199525  0.00088843394
     22500   894.36158     -1616.2617      103.46675     -1512.795       0.36354019     0.2194318      0.23019162     0.012034079    0.00088651932  0.00080068204
     22600   882.45904     -1614.7028      102.08977     -1512.613       0.36392446     0.21488274     0.23984109     0.011539549    0.00095261415  0.00084351722
     22700   930.78548     -1620.1245      107.68055     -1512.444       0.35877712     0.21267888     0.22480066     0.011233335    0.00096970926  0.00088624729
     22800   910.11961     -1617.5398      105.28976     -1512.25        0.35144449     0.21542636     0.23212583     0.010742087    0.0009876613   0.00091268317
     22900   902.9648      -1616.53        104.46204     -1512.0679      0.340389       0.21532985     0.23904738     0.010234212    0.0010156014   0.00093973374
     23000   925.6239      -1618.963       107.08342     -1511.8796      0.35343207     0.1852691      0.21038353     0.0098624409   0.0008860095   0.0008136124 
     23100   923.86736     -1618.5411      106.88021     -1511.6609      0.34405341     0.1910817      0.21416079     0.0093293227   0.00062816663  0.00057274093
     23200   925.761       -1618.5901      107.09928     -1511.4908      0.34318956     0.21445775     0.23020025     0.0088789763   0.00058494424  0.00054738172
     23300   896.19351     -1614.9299      103.67868     -1511.2512      0.39358701     0.20880423     0.24015248     0.0086762508   0.00061245902  0.00060460874
     23400   907.60491     -1616.0503      104.99884     -1511.0514      0.4023157      0.22821446     0.24105483     0.0085152256   0.0006469932   0.00064969754
     23500   935.38067     -1619.0316      108.21216     -1510.8194      0.41008966     0.22294536     0.23129134     0.0086482967   0.00079608278  0.00072031983
     23600   922.72296     -1617.2965      106.74782     -1510.5487      0.4113686      0.20778216     0.24653321     0.0087752712   0.00077498244  0.00077172327
     23700   920.28513     -1616.8504      106.46579     -1510.3846      0.39664819     0.22214339     0.24126579     0.0087430917   0.00080588285  0.00081536055
     23800   938.53524     -1618.7505      108.5771      -1510.1734      0.41043143     0.21173313     0.21400243     0.0086238221   0.00083699007  0.00076867659
     23900   958.08591     -1620.8344      110.83888     -1509.9955      0.371873       0.19508679     0.21820919     0.0083095166   0.00077454981  0.00062086059
     24000   940.24924     -1618.5187      108.77539     -1509.7433      0.38369669     0.21353495     0.23002942     0.0079408042   0.00070625536  0.000575698  
     24100   905.83642     -1614.2974      104.79425     -1509.5032      0.36015104     0.21697519     0.22789993     0.0076755711   0.00070655793  0.00057366556
     24200   933.85102     -1617.3618      108.0352      -1509.3266      0.37939264     0.22785846     0.24249613     0.0073396987   0.00075157599  0.00059379115
     24300   936.79907     -1617.4915      108.37625     -1509.1153      0.34755662     0.19391265     0.22915691     0.007085776    0.00073738157  0.00061903929
     24400   909.83486     -1614.1357      105.25682     -1508.8789      0.34001268     0.19634191     0.2252792      0.0067649895   0.00062773914  0.00058354421
     24500   912.37845     -1614.2073      105.55108     -1508.6562      0.32680319     0.19724004     0.21774081     0.0064033858   0.00054972466  0.0005219457 
     24600   948.64927     -1618.1987      109.74717     -1508.4516      0.36909042     0.20709297     0.22224978     0.0059843873   0.00047534208  0.0004573627 
     24700   923.41944     -1615.0806      106.82839     -1508.2522      0.34554999     0.20499785     0.23012057     0.0057057349   0.00044052526  0.00043271624
     24800   937.14348     -1616.558       108.4161      -1508.1419      0.3630759      0.19996903     0.22524611     0.0054641055   0.00039410449  0.0004150732 
     24900   943.68687     -1617.1986      109.17309     -1508.0256      0.32901403     0.2006198      0.23507564     0.0051550859   0.00035558537  0.00039514857
     25000   936.76636     -1616.2288      108.37247     -1507.8563      0.42470048     0.2228444      0.23478316     0.0050949183   0.0003388859   0.00039566529
     25100   956.85861     -1618.3621      110.6969      -1507.6652      0.48430832     0.22860781     0.23795163     0.0052908805   0.00040079229  0.00039168857
     25200   931.45739     -1615.2651      107.75828     -1507.5068      0.43373039     0.22048457     0.24107285     0.0053193795   0.00045393686  0.00042394644
     25300   913.35739     -1613.0534      105.66433     -1507.389       0.4591287      0.21476155     0.23831458     0.0054261748   0.00046936148  0.00044151617
     25400   927.59605     -1614.5179      107.31157     -1507.2063      0.43605846     0.20533365     0.23368091     0.0055093121   0.00042958585  0.00044355543
     25500   981.22604     -1620.5341      113.51591     -1507.0182      0.38266467     0.20419848     0.22264348     0.0054845091   0.00039189545  0.00044024629
     25600   930.18892     -1614.4134      107.61154     -1506.8019      0.48878857     0.24036555     0.24629846     0.0054990568   0.0004228039   0.00045263529
     25700   936.48922     -1614.9865      108.34041     -1506.6461      0.50157249     0.222788       0.25056495     0.0056860799   0.000467307    0.00050567665
     25800   936.0913      -1614.7035      108.29437     -1506.4091      0.52018621     0.21341892     0.24548146     0.0058978314   0.00047670767  0.00053551915
     25900   931.31302     -1613.9626      107.74158     -1506.221       0.45879344     0.19942341     0.22855236     0.0059958056   0.00045166284  0.00051603153
     26000   930.03415     -1613.6485      107.59363     -1506.0548      0.47108669     0.20961063     0.22940943     0.0060158949   0.00041248023  0.00046466508
     26100   952.52197     -1616.0688      110.1952      -1505.8736      0.48076973     0.21561106     0.23035109     0.0060500251   0.00040952441  0.00045072925
     26200   955.99677     -1616.2961      110.59719     -1505.6989      0.4844491      0.20303906     0.23250905     0.0060759695   0.00039023612  0.00042777838
     26300   985.72009     -1619.5923      114.03582     -1505.5565      0.45656101     0.20545165     0.23432633     0.0061283246   0.00037326392  0.00040759088
     26400   968.97621     -1617.48        112.09875     -1505.3812      0.48234543     0.22375806     0.25272914     0.00611329     0.0003755311   0.00042051429
     26500   967.34691     -1617.0901      111.91026     -1505.1799      0.50900984     0.22891764     0.24341423     0.0061895566   0.00040017943  0.00044687819
     26600   946.50139     -1614.4503      109.49869     -1504.9516      0.56355628     0.22528024     0.25244719     0.0062331192   0.00042366981  0.00046606064
     26700   943.10567     -1613.8073      109.10585     -1504.7015      0.5190989      0.21649919     0.23766184     0.00637772     0.00043773153  0.00047592189
     26800   961.52163     -1615.7689      111.23635     -1504.5325      0.53744909     0.21277994     0.23291164     0.0065063292   0.00042479609  0.00048150062
     26900   937.79525     -1612.8046      108.4915      -1504.3131      0.55042509     0.23899142     0.23815617     0.006621499    0.00044165503  0.00046717864
     27000   943.9044      -1613.3492      109.19825     -1504.151       0.50382231     0.22319778     0.2374578      0.006691576    0.00046237412  0.00046714344
     27100   963.6861      -1615.4727      111.48675     -1503.986       0.55406395     0.21331906     0.23227567     0.0067447032   0.00045715647  0.00044289982
     27200   958.2289      -1614.6629      110.85542     -1503.8075      0.61637796     0.21548232     0.23852098     0.0068089966   0.00045258371  0.00042850581
     27300   929.55331     -1611.1805      107.53801     -1503.6425      0.68217626     0.21934834     0.24894269     0.0070651871   0.00045249059  0.00042757745
     27400   955.52898     -1613.9164      110.54307     -1503.3733      0.65029506     0.22018932     0.23736943     0.0072917308   0.00045411009  0.00042938931
     27500   946.662       -1612.7048      109.51727     -1503.1876      0.66217888     0.21654547     0.24350635     0.0075079158   0.00044943042  0.00042766398
     27600   949.5266      -1612.8328      109.84867     -1502.9841      0.65014732     0.2326829      0.24745161     0.0076672054   0.00045988718  0.00044487539
     27700   946.66253     -1611.3581      109.51733     -1501.8408      0.70139798     0.22254642     0.24490922     0.0078714992   0.00048265765  0.00045054772
     27800   953.84384     -1611.8636      110.34812     -1501.5155      0.68754304     0.22692325     0.23146344     0.0081126      0.00048064664  0.00043704844
     27900   940.82754     -1610.201       108.8423      -1501.3587      0.72845433     0.22280913     0.23602672     0.0082737081   0.00048298844  0.00043123406
     28000   959.36564     -1612.1214      110.98693     -1501.1344      0.69358076     0.20385538     0.22994175     0.0084342973   0.00047353964  0.00041566885
     28100   938.89132     -1609.5857      108.6183      -1500.9674      0.71329827     0.22457755     0.2419095      0.0085398779   0.00046502726  0.00039984825
     28200   968.49185     -1612.8106      112.04272     -1500.7679      0.71531895     0.2134964      0.23527344     0.0086146181   0.00045409856  0.00040382362
     28300   973.15418     -1613.1573      112.5821      -1500.5752      0.79339914     0.22749918     0.2440143      0.0087627476   0.00044567946  0.00040726936
     28400   969.12839     -1612.4827      112.11636     -1500.3663      0.86164948     0.24121408     0.25943339     0.009034791    0.00046622459  0.00043111383
     28500   979.97905     -1613.5349      113.37165     -1500.1633      0.89917949     0.22840625     0.24907682     0.0093305125   0.00048008381  0.00044477398
     28600   981.1123      -1613.4589      113.50275     -1499.9561      0.86777847     0.21411921     0.24343428     0.0096128194   0.00048041316  0.00045270061
     28700   972.5175      -1612.229       112.50844     -1499.7206      0.8790174      0.21223344     0.22614289     0.0098299985   0.00046242886  0.00043778539
     28800   975.66778     -1612.3779      112.87289     -1499.505       0.836618       0.20322813     0.22410862     0.010025885    0.0004428952   0.00041501719
     28900   981.17188     -1612.8239      113.50965     -1499.3142      0.83505534     0.21925953     0.23586036     0.010180308    0.00042389138  0.00040134543
     29000   958.87999     -1610.0545      110.93075     -1499.1237      0.82257362     0.21177811     0.23940225     0.010319931    0.00042570538  0.00039593941
     29100   981.75518     -1612.497       113.57713     -1498.9199      0.85967672     0.19892159     0.2219749      0.010446298    0.0003959418   0.00037615033
     29200   972.94888     -1611.2564      112.55834     -1498.698       0.7610269      0.22010423     0.23688162     0.01055246     0.0003875495   0.00035690204
     29300   984.16737     -1612.3395      113.85619     -1498.4833      0.80772368     0.21217431     0.24190948     0.010681337    0.00037925266  0.00035938832
     29400   990.69615     -1612.8438      114.61149     -1498.2324      0.87068551     0.2263862      0.23708354     0.010775529    0.00037683142  0.0003608651 
     29500   971.02878     -1610.3471      112.33621     -1498.0109      0.85318276     0.23352153     0.24910046     0.010869733    0.00038076721  0.00036374008
     29600   1006.6301     -1614.2422      116.45485     -1497.7874      0.83696485     0.21971798     0.23756175     0.010987488    0.00039034833  0.00037031621
     29700   989.50201     -1612.0325      114.47334     -1497.5592      0.8562765      0.2017173      0.22252266     0.011037516    0.000373873    0.00035698249
     29800   981.83576     -1610.9656      113.58645     -1497.3791      0.85235668     0.20965549     0.23025874     0.011069562    0.00035709737  0.0003425517 
     29900   1010.7939     -1614.0934      116.93655     -1497.1569      0.84910284     0.21295599     0.22907736     0.01109529     0.00033769008  0.00033381812
     30000   970.01386     -1609.1381      112.2188      -1496.9193      0.81257657     0.2305748      0.25801294     0.01109603     0.00033836761  0.00033597049
     30100   964.4168      -1608.197       111.57129     -1496.6258      0.87677469     0.21974131     0.25329015     0.011106197    0.00034536161  0.00034427577
     30200   991.49879     -1611.1185      114.70434     -1496.4142      0.9107986      0.21251538     0.24382605     0.011134147    0.00033988552  0.0003498549 
     30300   949.01887     -1605.9446      109.78993     -1496.1546      0.86393717     0.24088206     0.25936555     0.011188341    0.00034212507  0.00035605549
     30400   984.30766     -1609.7885      113.87242     -1495.9161      0.89073085     0.21967469     0.26051654     0.011208694    0.00035456305  0.00036585302
     30500   980.27296     -1609.0867      113.40565     -1495.681       0.8717426      0.21928333     0.24166398     0.011215335    0.00034854559  0.00036813947
     30600   970.89299     -1607.8164      112.3205      -1495.4959      0.86916554     0.23748789     0.24241858     0.011227927    0.00035070283  0.00036812502
     30700   984.5005      -1609.2157      113.89473     -1495.3209      0.86695099     0.2393613      0.24157833     0.011233635    0.00036219085  0.00036774787
     30800   1000.5142     -1610.8334      115.74732     -1495.0861      0.84011899     0.22000798     0.2541807      0.011228402    0.00036628264  0.0003684909 
     30900   1015.6566     -1612.348       117.49911     -1494.8489      0.85538582     0.22973378     0.25633042     0.011204413    0.00037084455  0.00036875603
     31000   1016.6149     -1612.2109      117.60997     -1494.6009      0.79997313     0.22178891     0.24616964     0.011159887    0.00037178791  0.00037772362
     31100   1012.6447     -1611.4814      117.15067     -1494.3307      0.78538886     0.21522951     0.2396969      0.011079311    0.00036166614  0.00037704707
     31200   981.06108     -1607.6258      113.49683     -1494.1289      0.83810743     0.20613495     0.24487129     0.010997963    0.00035048945  0.00038105203
     31300   961.71047     -1605.1473      111.2582      -1493.8891      0.83038413     0.19909818     0.23693334     0.010912282    0.00033477151  0.00037107285
     31400   969.84982     -1605.8361      112.19982     -1493.6363      0.76873926     0.21178755     0.23585351     0.010826251    0.00031809568  0.00035446348
     31500   985.01226     -1607.349       113.95393     -1493.395       0.81679042     0.2394061      0.25441524     0.010758647    0.00031432391  0.00035877991
     31600   1030.1714     -1612.2945      119.1783      -1493.1162      0.85139776     0.23755429     0.25057176     0.010716798    0.00033028237  0.00036326398
     31700   1005.701      -1609.2366      116.34736     -1492.8892      0.84321032     0.20373108     0.24224617     0.010679884    0.00032740188  0.00036087515
     31800   1017.9186     -1610.3985      117.7608      -1492.6377      0.87585872     0.21721893     0.23645948     0.010652733    0.00031526597  0.00035557996
     31900   1008.5672     -1609.03        116.67895     -1492.3511      0.82851991     0.21444339     0.24349161     0.010594114    0.00031440801  0.00035462835
     32000   996.49948     -1607.4539      115.28286     -1492.1711      0.87133689     0.2121906      0.24697681     0.010532725    0.00030140619  0.00035023016
     32100   1015.5605     -1609.4366      117.48799     -1491.9486      0.78889528     0.21682401     0.23407816     0.010467938    0.00029822445  0.00034726235
     32200   1054.4129     -1613.6809      121.98274     -1491.6981      0.85802738     0.21824062     0.23804646     0.010409365    0.00029134952  0.00033968262
     32300   1011.035      -1608.4064      116.96444     -1491.4419      0.83463419     0.2197911      0.25649367     0.010333091    0.00029383457  0.0003385954 
     32400   1007.338      -1607.6842      116.53674     -1491.1475      0.83973846     0.20708623     0.22031349     0.010259422    0.0002880877   0.00033370555
     32500   1019.379      -1608.8473      117.92974     -1490.9176      0.86805401     0.21596055     0.25299424     0.010191298    0.00027730099  0.00032713466
     32600   1000.7917     -1606.4438      115.77942     -1490.6643      0.85262473     0.25447088     0.27260523     0.010136961    0.00028848963  0.00033502858
     32700   989.54742     -1604.9067      114.47859     -1490.4281      0.8661911      0.24394546     0.25372335     0.010095598    0.00030525728  0.00034629952
     32800   996.2139      -1605.4902      115.24982     -1490.2403      0.85080622     0.22715393     0.23889849     0.01003958     0.00030924167  0.00034298339
     32900   1031.3542     -1609.1263      119.31513     -1489.8112      0.83684303     0.22112377     0.22380708     0.0099615369   0.00030650752  0.00033195781
     33000   1027.692      -1608.4774      118.89145     -1489.5859      0.89162317     0.22502109     0.24249804     0.0099128853   0.00030538431  0.00032084175
     33100   1025.1985     -1607.9159      118.60299     -1489.313       0.901959       0.22901175     0.24496263     0.0098928064   0.00030662932  0.00032092989
     33200   985.09925     -1603.0412      113.96399     -1489.0772      0.91319342     0.22340733     0.26281506     0.0098277295   0.00030689642  0.00032664253
     33300   1012.2479     -1605.9607      117.10476     -1488.8559      0.87539663     0.22400841     0.2465133      0.0097817363   0.00030224241  0.00032831346
     33400   1017.5823     -1606.2903      117.72189     -1488.5684      0.92122378     0.23280877     0.23934849     0.0097546378   0.00030362127  0.00032751967
     33500   1049.1292     -1609.7227      121.37148     -1488.3512      1.0068703      0.21673847     0.22229889     0.0097353044   0.000302329    0.00032160059
     33600   1030.6564     -1607.3192      119.23441     -1488.0848      1.0356973      0.22187553     0.25048206     0.0097474305   0.00029989222  0.00031728676
     33700   1046.8692     -1608.9427      121.11002     -1487.8327      0.99036304     0.22805516     0.25018921     0.0097622241   0.00029892685  0.00031838717
     33800   977.098       -1600.6096      113.03835     -1487.5713      0.98471187     0.24580135     0.25097913     0.0097528554   0.00030369771  0.00031920269
     33900   1066.9585     -1610.7911      123.43411     -1487.357       1.0094077      0.20696726     0.23064525     0.0097596172   0.00029961771  0.00031804047
     34000   1025.2157     -1605.6938      118.60498     -1487.0888      1.0204432      0.21849251     0.25305793     0.0097609025   0.00029439964  0.00031352453
     34100   1055.0277     -1608.9361      122.05387     -1486.8822      1.1119029      0.22424982     0.23660404     0.0097966975   0.00028998209  0.00031127486
     34200   1043.2103     -1607.3067      120.68674     -1486.6199      1.153939       0.23048009     0.24884067     0.0098326603   0.00029036794  0.00030626941
     34300   1038.3809     -1606.5192      120.12803     -1486.3912      1.0389372      0.21434288     0.25492254     0.0098738574   0.0002894155   0.00030933068
     34400   1002.7403     -1602.1926      116.00485     -1486.1878      1.0421884      0.22992525     0.22128757     0.0098758217   0.00028414926  0.00030289091
     34500   1058.4465     -1608.4095      122.44938     -1485.9602      1.0094724      0.21230351     0.21807782     0.0098680738   0.00028063447  0.00029321527
     34600   1001.2179     -1601.4818      115.82872     -1485.6531      1.0591899      0.21220138     0.24486837     0.0098819593   0.0002738109   0.00028631527
     34700   1040.2684     -1605.7281      120.34639     -1485.3817      1.0593673      0.22194202     0.24759372     0.0098822023   0.00026895115  0.00028411265
     34800   1060.3016     -1607.805       122.66399     -1485.141       1.0664741      0.23802841     0.24757147     0.0098934476   0.00026952634  0.00028510704
     34900   1034.6088     -1604.5768      119.69165     -1484.8852      1.1173385      0.23622324     0.25969684     0.0099102443   0.0002728511   0.00028710726
     35000   1032.2916     -1604.117       119.42357     -1484.6935      1.1179278      0.22862739     0.25367001     0.0099075226   0.00027589145  0.00029159515
     35100   1039.8694     -1604.2665      120.30024     -1483.9663      1.1237166      0.23904254     0.26301518     0.0099203098   0.00027701604  0.00029145562
     35200   1058.1297     -1606.1281      122.41273     -1483.7154      1.0818028      0.22401752     0.24901773     0.00993089     0.00027942952  0.00029651641
     35300   1063.3406     -1606.4511      123.01557     -1483.4356      1.0830696      0.22460575     0.22625714     0.0099256709   0.00027814471  0.00029192385
     35400   1055.442      -1605.2519      122.10179     -1483.1501      1.052343       0.22874772     0.24246859     0.0099153575   0.00027622811  0.00028627244
     35500   1068.0014     -1606.4276      123.55476     -1482.8729      1.1414893      0.21683257     0.24386609     0.0099108281   0.00027415183  0.00028551407
     35600   1035.1974     -1602.3655      119.75974     -1482.6058      1.2190007      0.22042311     0.23144003     0.0099496043   0.00026934803  0.00028254035
     35700   1042.6355     -1602.8518      120.62024     -1482.2316      1.1741107      0.20124862     0.22343727     0.0099748122   0.00026228074  0.00027605443
     35800   1043.4779     -1602.7827      120.71769     -1482.0651      1.2178754      0.20704306     0.22978044     0.010002697    0.00025241422  0.00026821798
     35900   1062.1813     -1604.7351      122.88144     -1481.8536      1.1853139      0.23668817     0.25372594     0.010036914    0.0002488242   0.00026594191
     36000   1067.4857     -1605.1001      123.49511     -1481.605       1.2001333      0.22396896     0.25667386     0.010073806    0.00024981188  0.00026970515
     36100   1036.9054     -1601.3286      119.95733     -1481.3712      1.313773       0.21376323     0.25877002     0.010103675    0.00024764667  0.00027149741
     36200   1023.8874     -1599.5215      118.45131     -1481.0702      1.229265       0.2403277      0.25058159     0.010158425    0.00024453925  0.00027238164
     36300   1064.6216     -1603.9527      123.16376     -1480.7889      1.1372108      0.22219838     0.24886235     0.010184173    0.00024479941  0.00027119934
     36400   1002.0352     -1596.4548      115.92328     -1480.5315      1.1970168      0.22612324     0.26511702     0.010184015    0.00024514682  0.00027205363
     36500   1049.1265     -1601.6589      121.37117     -1480.2878      1.1853486      0.2342495      0.23583677     0.010196655    0.00024333179  0.00027149014
     36600   1109.6763     -1608.3672      128.37604     -1479.9911      1.2297319      0.20567354     0.24716509     0.010201657    0.00024043262  0.0002694467 
     36700   1094.3345     -1606.3197      126.60119     -1479.7185      1.1985024      0.22603031     0.25645658     0.010220337    0.00023697643  0.00026655257
     36800   1078.7089     -1604.2567      124.79349     -1479.4632      1.2272471      0.22026793     0.24301468     0.010216014    0.00023720981  0.00026662524
     36900   1029.113      -1598.2769      119.05585     -1479.221       1.2214049      0.22353171     0.24865976     0.010232965    0.00023268285  0.00026500909
     37000   1067.9557     -1602.4683      123.54948     -1478.9188      1.3242676      0.22890952     0.26519878     0.010249717    0.00023517457  0.00026647976
     37100   1068.8311     -1602.3106      123.65076     -1478.6598      1.2750864      0.24123608     0.26383618     0.010261145    0.00023558701  0.00026956246
     37200   1055.3971     -1600.504       122.0966      -1478.4074      1.2152826      0.2479258      0.2770088      0.010267487    0.00024158312  0.00027604398
     37300   1067.4775     -1601.6031      123.49416     -1478.109       1.2241271      0.2269252      0.25584617     0.010259517    0.00024636207  0.00027914034
     37400   1040.6017     -1598.1649      120.38495     -1477.7799      1.1699247      0.21417727     0.2566898      0.010248014    0.00024400107  0.0002784146 
     37500   1075.5072     -1601.9448      124.4231      -1477.5217      1.215395       0.2154424      0.25202393     0.010228433    0.0002387677   0.00027713182
     37600   1057.6771     -1599.6092      122.36036     -1477.2488      1.250097       0.24582032     0.26303489     0.010212957    0.00023924135  0.00027827958
     37700   1049.6362     -1598.4706      121.43013     -1477.0405      1.2430939      0.23990633     0.26265985     0.010206245    0.00024198527  0.00028241788
     37800   1091.0049     -1602.9575      126.21599     -1476.7415      1.22116        0.22946352     0.25778869     0.010190601    0.00024259638  0.00028482068
     37900   1053.3912     -1598.4561      121.86454     -1476.5915      1.1966477      0.23985675     0.25428365     0.010177861    0.00024446989  0.0002854823 
     38000   1156.7045     -1610.155       133.81664     -1476.3383      1.2391707      0.23514693     0.23790475     0.01016729     0.00024540546  0.0002837183 
     38100   1037.8755     -1596.0618      120.06957     -1475.9922      1.225785       0.23769303     0.27325039     0.010148287    0.00024730838  0.00028460096
     38200   1057.836      -1598.1094      122.37875     -1475.7307      1.260508       0.23451958     0.26263771     0.010129666    0.0002476556   0.00028828603
     38300   1092.6112     -1601.8935      126.40181     -1475.4917      1.3251452      0.24622969     0.26926541     0.010123818    0.00025373566  0.00029029185
     38400   1085.1519     -1600.7814      125.53887     -1475.2425      1.2531845      0.22716863     0.25004888     0.010116052    0.000256414    0.00028855059
     38500   1067.4622     -1598.478       123.49239     -1474.9856      1.3097318      0.21560672     0.25120925     0.010104895    0.00025294581  0.00028707598
     38600   1061.2779     -1597.5093      122.77694     -1474.7323      1.3382541      0.2567033      0.27572518     0.010120925    0.00025246958  0.00028877034
     38700   1069.9111     -1598.2392      123.7757      -1474.4635      1.341266       0.26433939     0.27850346     0.010138273    0.00026555451  0.00029581616
     38800   1114.2966     -1603.1071      128.91056     -1474.1965      1.2215989      0.23014642     0.25106342     0.010125339    0.00026721686  0.00029560878
     38900   1046.7857     -1595.0063      121.10036     -1473.906       1.3273686      0.23422221     0.26140906     0.010114224    0.00026790214  0.0002950278 
     39000   1071.1478     -1597.5547      123.91876     -1473.6359      1.37179        0.26108385     0.27181938     0.01011774     0.00026911017  0.00029773778
     39100   1078.585      -1598.1754      124.77916     -1473.3962      1.3267642      0.2725151      0.2692294      0.010117109    0.00027940179  0.00030171829
     39200   1128.274      -1603.6218      130.52757     -1473.0942      1.2287267      0.23932699     0.25344572     0.010107444    0.00028485453  0.00030380899
     39300   1054.8416     -1594.8907      122.03233     -1472.8584      1.3873035      0.25038069     0.27442905     0.010096713    0.00028711212  0.00030597262
     39400   1062.9088     -1595.6482      122.96561     -1472.6826      1.3569535      0.24243619     0.24672876     0.010105532    0.00028864172  0.00030723406
     39500   1096.3525     -1599.1671      126.83464     -1472.3324      1.2794294      0.22627399     0.25778088     0.010090992    0.0002895978   0.00030523131
     39600   1065.0901     -1595.2956      123.21796     -1472.0776      1.244121       0.24383573     0.25916625     0.010074257    0.0002876764   0.00030341432
     39700   1091.5579     -1598.0757      126.27997     -1471.7957      1.3795506      0.26857772     0.274751       0.010058154    0.00029282383  0.00030654118
     39800   1082.2382     -1596.7626      125.20179     -1471.5609      1.3073632      0.25263697     0.27802979     0.010047792    0.00030049815  0.00031132689
     39900   1080.9787     -1596.36        125.05608     -1471.3039      1.2760478      0.23528342     0.26064806     0.010031081    0.00030091799  0.00031425483
     40000   1121.6874     -1600.7797      129.76558     -1471.0141      1.4173894      0.22770805     0.24813843     0.0100202      0.0002985726   0.00031151847
     40100   1070.024      -1594.5154      123.78875     -1470.7267      1.3504519      0.2318958      0.26754617     0.010017761    0.00029689678  0.00031170937
     40200   1125.9261     -1600.7133      130.25595     -1470.4574      1.3861725      0.23274516     0.24700755     0.010017563    0.00029467217  0.00031262747
     40300   1092.5721     -1596.5779      126.39729     -1470.1806      1.4227882      0.23222876     0.24550314     0.010014307    0.00029255404  0.00031112101
     40400   1117.036      -1599.1443      129.22747     -1469.9168      1.435911       0.23120748     0.24676888     0.010021527    0.00028935896  0.00030720721
     40500   1081.7447     -1594.7775      125.1447      -1469.6328      1.4767261      0.24162566     0.25463717     0.010033228    0.00028849334  0.00030829446
     40600   1115.1982     -1598.4015      129.01486     -1469.3867      1.53238        0.21934941     0.25647873     0.010053011    0.00028684917  0.00030717263
     40700   1153.7106     -1602.5455      133.47027     -1469.0752      1.4017074      0.21656898     0.2393602      0.0100561      0.0002828166   0.00030349647
     40800   1072.9414     -1592.9006      124.12626     -1468.7743      1.5220485      0.21793985     0.23865473     0.010063825    0.00027805055  0.00030186651
     40900   1107.5447     -1596.638       128.12944     -1468.5085      1.5153682      0.21659593     0.25410771     0.010094673    0.00027178776  0.00029851374
     41000   1094.062      -1594.8283      126.56966     -1468.2586      1.5192584      0.23857103     0.26181316     0.010105846    0.00027003685  0.00029812428
     41100   1121.1294     -1597.6064      129.70102     -1467.9054      1.5020327      0.23520432     0.25068122     0.010114304    0.000271017    0.0002974357 
     41200   1099.216      -1594.8714      127.16592     -1467.7055      1.6229777      0.23472183     0.25917415     0.01014684     0.00026879874  0.00029468917
     41300   1077.7558     -1592.0907      124.68323     -1467.4075      1.5476318      0.25371271     0.26388185     0.010176509    0.0002696494   0.00029702137
     41400   1086.9463     -1592.9001      125.74646     -1467.1536      1.6907625      0.25386459     0.25818861     0.010203294    0.00027377556  0.00029615363
     41500   1070.2832     -1590.7628      123.81875     -1466.944       1.8238586      0.26411814     0.27206425     0.010269359    0.00027715957  0.00029516621
     41600   1132.3746     -1597.6759      131.00196     -1466.674       1.8967785      0.26358631     0.28489692     0.010352458    0.00028322601  0.00029788591
     41700   1100.4883     -1593.7954      127.31311     -1466.4823      1.8931936      0.29060199     0.278863       0.010427578    0.00029219464  0.00030215257
     41800   1118.0101     -1595.5403      129.34017     -1466.2001      1.7595016      0.26761395     0.25722329     0.010492967    0.00029952201  0.00030329063
     41900   1081.079      -1591.0254      125.06768     -1465.9578      1.8955975      0.25980203     0.262433       0.010562746    0.00030354624  0.00030351325
     42000   1120.3521     -1595.3213      129.6111      -1465.7102      1.8994257      0.24251116     0.25127357     0.010629546    0.00030570385  0.00030242827
     42100   1112.1667     -1594.1392      128.66416     -1465.4751      1.8839455      0.24117561     0.25236372     0.010692941    0.00030509897  0.00030003679
     42200   1104.0747     -1592.8807      127.72801     -1465.1527      1.9452653      0.26019127     0.27732858     0.010761837    0.0003075769   0.00029956397
     42300   1077.4889     -1589.4866      124.65235     -1464.8342      2.0149703      0.23895497     0.27012609     0.010838415    0.00030975222  0.00030024379
     42400   1100.2166     -1591.7832      127.28167     -1464.5016      2.0693063      0.24725525     0.26809682     0.010920709    0.00030967098  0.00030071926
     42500   1168.2556     -1599.3659      135.15296     -1464.2129      2.0134564      0.25549076     0.26884645     0.010991442    0.00031015916  0.00030158829
     42600   1117.6013     -1593.2585      129.29287     -1463.9657      2.0543464      0.30381548     0.30817284     0.011056944    0.00031741107  0.00030805445
     42700   1137.0096     -1595.2586      131.53817     -1463.7204      1.9572343      0.25810383     0.29704268     0.011132374    0.00032642159  0.00031381309
     42800   1122.9166     -1593.3623      129.90778     -1463.4545      2.0490519      0.2539698      0.2862639      0.011193488    0.0003284378   0.0003182087 
     42900   1104.8774     -1590.9406      127.82087     -1463.1197      2.0574224      0.26478038     0.28219646     0.011280594    0.00033021851  0.00032198565
     43000   1120.361      -1592.489       129.61214     -1462.8769      2.0759228      0.24468592     0.27228187     0.011356261    0.00033215689  0.00032484449
     43100   1086.1278     -1588.2478      125.65176     -1462.5961      2.1239736      0.22000795     0.24246865     0.011428785    0.00032782241  0.00032237723
     43200   1125.1024     -1592.5389      130.16065     -1462.3783      2.1336824      0.23728622     0.25556476     0.01150929     0.00032338992  0.00031863148
     43300   1141.6625     -1594.1526      132.07645     -1462.0761      2.2011303      0.25794032     0.28683353     0.01159047     0.00032474355  0.00031975074
     43400   1098.6459     -1588.9408      127.09996     -1461.8409      2.2539052      0.27166895     0.28389452     0.011691581    0.00032832646  0.00032394103
     43500   1143.3746     -1593.8511      132.27452     -1461.5766      2.1986474      0.23672492     0.26841267     0.011778564    0.00032988354  0.00032577209
     43600   1164.1612     -1595.9217      134.67928     -1461.2424      2.1421093      0.24662636     0.26594018     0.011847229    0.00032927165  0.00032445061
     43700   1114.6056     -1589.8956      128.94631     -1460.9493      2.1797021      0.27538215     0.26543269     0.011912125    0.00033193683  0.00032309145
     43800   1106.3182     -1588.67        127.98755     -1460.6825      2.2210708      0.26919525     0.27049206     0.011980812    0.00033572816  0.0003237753 
     43900   1117.6478     -1589.5495      129.29824     -1460.2513      2.369566       0.25078933     0.27902261     0.012059132    0.00033778609  0.00032567073
     44000   1159.3735     -1594.0518      134.12541     -1459.9263      2.1161823      0.258052       0.27209369     0.012124117    0.00033914072  0.00032670323
     44100   1155.1286     -1593.2414      133.63433     -1459.607       2.1624565      0.28387348     0.28094679     0.012188327    0.00034180559  0.00032909341
     44200   1176.9864     -1595.4566      136.163       -1459.2936      2.2185659      0.27703258     0.29359131     0.01225033     0.00034721021  0.00033417433
     44300   1123.8102     -1588.9101      130.01116     -1458.899       2.17041        0.25471537     0.28705001     0.012295227    0.00035009866  0.00033644455
     44400   1141.3518     -1590.6577      132.04051     -1458.6172      2.1748992      0.24718855     0.26440525     0.012354182    0.00035033696  0.00033692721
     44500   1174.1807     -1594.2211      135.83841     -1458.3827      2.2826178      0.24801173     0.25205871     0.012412657    0.00034907839  0.00033512112
     44600   1101.7137     -1585.5996      127.45487     -1458.1447      2.1710368      0.26835286     0.25515931     0.012466895    0.00034970797  0.00033169927
     44700   1116.8792     -1586.9648      129.20933     -1457.7555      2.1999114      0.25221686     0.27195416     0.01251716     0.00035111818  0.00033132419
     44800   1164.0097     -1592.1654      134.66176     -1457.5036      2.2659445      0.24761269     0.266304       0.012566125    0.00035092717  0.00033117143
     44900   1151.4503     -1590.4145      133.20878     -1457.2057      2.2928897      0.25217654     0.27024994     0.012615251    0.00035011595  0.00033217378
     45000   1190.3149     -1594.5823      137.70494     -1456.8773      2.28016        0.25878538     0.27347506     0.012665333    0.00035021766  0.00033237748
     45100   1133.3575     -1587.6394      131.11567     -1456.5237      2.3217317      0.29430339     0.2911411      0.012716144    0.00035453551  0.00033406696
     45200   1187.9059     -1593.5994      137.42626     -1456.1732      2.4071685      0.28648544     0.26885048     0.01277355     0.00036021876  0.00033602556
     45300   1158.2296     -1589.1586      133.99307     -1455.1655      2.3387294      0.29160448     0.28806906     0.012827964    0.00036561774  0.00033756056
     45400   1180.1427     -1591.1984      136.52815     -1454.6703      2.3686639      0.30015845     0.29382042     0.012878266    0.00037121377  0.00034064938
     45500   1159.2365     -1588.4201      134.10956     -1454.3105      2.2548486      0.29976865     0.29121612     0.012930353    0.00037769746  0.0003448553 
     45600   1170.749      -1589.3803      135.44142     -1453.9389      2.329982       0.28826718     0.27793594     0.012972896    0.00038389276  0.00034659006
     45700   1125.2044     -1583.7782      130.17246     -1453.6057      2.3430041      0.28805437     0.2791937      0.01300611     0.00038804349  0.00034676177
     45800   1142.2433     -1585.4293      132.14365     -1453.2857      2.2054708      0.30353687     0.28580572     0.01303968     0.00039382058  0.00034827931
     45900   1127.838      -1583.512       130.47713     -1453.0349      2.3719762      0.33711414     0.32386578     0.01307905     0.00040347848  0.00035245823
     46000   1167.8349     -1587.8132      135.10429     -1452.7089      2.3666128      0.32971565     0.29182606     0.013124433    0.00041357851  0.00035776259
     46100   1100.15       -1579.7253      127.27397     -1452.4513      2.4432335      0.37342483     0.31448043     0.013164044    0.00042639855  0.00036202027
     46200   1165.9892     -1587.723       134.89076     -1452.8323      2.4204922      0.3808665      0.30714443     0.013208695    0.000443681    0.0003682511 
     46300   1088.8283     -1578.2294      125.96418     -1452.2652      2.3516231      0.35845344     0.32853985     0.013257308    0.00045865253  0.0003735589 
     46400   1130.1052     -1582.7437      130.73942     -1452.0043      2.3534503      0.35364244     0.32761381     0.013294871    0.00047019249  0.00037962063
     46500   1125.4231     -1581.9894      130.19776     -1451.7916      2.5267978      0.36981608     0.31537204     0.013338789    0.00048357219  0.00038523573
     46600   1145.3044     -1583.8964      132.49778     -1451.3986      2.5782996      0.38921129     0.30370587     0.013396255    0.00049906415  0.00039060025
     46700   1160.3265     -1585.3807      134.23566     -1451.145       2.4695014      0.37546936     0.33089644     0.013445451    0.00051426476  0.00039646709
     46800   1141.165      -1582.5726      132.0189      -1450.5537      2.4810419      0.37175668     0.30871146     0.013486107    0.00052833633  0.00040189515
     46900   1113.2655     -1579.0575      128.79127     -1450.2662      2.5928318      0.35188336     0.29268709     0.013534352    0.00053954339  0.00040407734
     47000   1179.2642     -1586.2974      136.42651     -1449.8709      2.6960716      0.33120417     0.27538893     0.013591309    0.00054708189  0.00040483691
     47100   1152.1916     -1582.8628      133.29454     -1449.5682      2.6110789      0.36505976     0.29334414     0.013653046    0.00055656757  0.0004064055 
     47200   1198.4594     -1588.0363      138.64716     -1449.3891      2.5671226      0.3619608      0.31278191     0.013700651    0.0005672033   0.00040971563
     47300   1177.6071     -1585.3008      136.23481     -1449.066       2.7909548      0.35387533     0.29220921     0.013748986    0.00057836007  0.00041247194
     47400   1140.0014     -1580.5793      131.88429     -1448.6951      2.7766075      0.33568684     0.28684541     0.013809403    0.00058596985  0.00041285538
     47500   1165.3962     -1583.2759      134.82216     -1448.4538      2.7270603      0.37060359     0.297391       0.013877601    0.00059546392  0.00041357105
     47600   1116.6825     -1577.3068      129.18658     -1448.1202      2.7858679      0.37872157     0.29562114     0.013938185    0.000607378    0.00041512855
     47700   1155.8312     -1580.7198      133.71561     -1447.0042      2.8073184      0.34695203     0.3128364      0.013995187    0.00061723705  0.00041787874
     47800   1201.989      -1585.6671      139.0555      -1446.6116      2.8576574      0.35651565     0.30062284     0.014064654    0.00062503389  0.00041996476
     47900   1166.9346     -1581.382       135.00014     -1446.3819      2.9178515      0.40713634     0.33674104     0.014142306    0.00063698572  0.00042454278
     48000   1137.2724     -1577.6293      131.56858     -1446.0607      2.9142162      0.40801885     0.34677276     0.014214549    0.00065197966  0.00043099136
     48100   1179.5347     -1582.1733      136.45781     -1445.7155      2.882226       0.38983759     0.31374148     0.01428618     0.000665549    0.00043646946
     48200   1202.0164     -1584.5411      139.05867     -1445.4825      2.8984548      0.37101452     0.3009551      0.014348301    0.00067650613  0.00043772736
     48300   1200.3193     -1584.0755      138.86233     -1445.2132      2.8740197      0.38577316     0.29293571     0.014403558    0.00068592977  0.00043780294
     48400   1170.884      -1580.2841      135.45703     -1444.8271      2.9701953      0.40274015     0.29893715     0.014471987    0.00069748413  0.00043931192
     48500   1179.5172     -1580.9953      136.45578     -1444.5396      2.9036556      0.40090856     0.31750912     0.014534968    0.00071095273  0.00044196312
     48600   1162.2893     -1578.6857      134.46273     -1444.2229      3.1632106      0.41439918     0.32329207     0.014609319    0.0007235218   0.00044525769
     48700   1112.9113     -1572.4626      128.75029     -1443.7123      3.2522843      0.45316435     0.33980768     0.014692141    0.00073882979  0.00044992001
     48800   1185.1651     -1580.4967      137.10918     -1443.3875      3.2774392      0.43351202     0.32405834     0.01478024     0.00075505163  0.00045525594
     48900   1197.7863     -1581.7576      138.56929     -1443.1883      3.2726538      0.40028694     0.32290077     0.014871663    0.00076741083  0.00045866139
     49000   1225.7072     -1584.6607      141.7994      -1442.8613      3.1615554      0.38374762     0.32795699     0.014961976    0.00077756639  0.00046252002
     49100   1162.9427     -1577.0983      134.53831     -1442.56        3.2349211      0.38889123     0.32309652     0.015040871    0.00078628614  0.00046574751
     49200   1158.0684     -1572.8523      133.97441     -1438.8779      3.3740751      0.42581891     0.33239386     0.015122573    0.00079760206  0.00046877154
     49300   1199.8842     -1577.283       138.812       -1438.471       3.2520881      0.43870492     0.34526684     0.015198811    0.00081104204  0.00047471695
     49400   1219.7108     -1579.3172      141.10569     -1438.2115      3.2793697      0.4278747      0.33306119     0.015276775    0.00082449283  0.00047877535
     49500   1171.8917     -1573.4618      135.57361     -1437.8882      3.2318042      0.45172353     0.35488764     0.01534814     0.00083650654  0.00048456896
     49600   1173.8474     -1573.3846      135.79986     -1437.5848      3.35392        0.51217826     0.360708       0.015427488    0.0008547481   0.0004917912 
     49700   1241.5887     -1580.9537      143.6367      -1437.317       3.4640066      0.53086566     0.33161088     0.01550932     0.00087778542  0.00049675124
     49800   1205.3733     -1576.461       139.44702     -1437.0139      3.6391851      0.49033945     0.36089333     0.015607882    0.00089819011  0.00050186826
     49900   1202.8801     -1575.822       139.15859     -1436.6634      3.6967469      0.49161828     0.36760669     0.015709987    0.00091607702  0.00050819312
     50000   1224.1106     -1576.8395      141.6147      -1435.2248      3.6062397      0.4919908      0.35350198     0.015817537    0.00093346183  0.0005156562 
     50100   1204.5222     -1574.3608      139.34856     -1435.0123      3.4199832      0.53051898     0.38590571     0.015905765    0.0009520061   0.00052218462
     50200   1177.2108     -1570.8408      136.18896     -1434.6518      3.5111842      0.51916063     0.3757657      0.015981937    0.00097282505  0.00053068669
     50300   1207.3182     -1574.0227      139.67202     -1434.3507      3.5854826      0.49310071     0.34488829     0.016059039    0.00099080195  0.00053660152
     50400   1240.4962     -1577.4348      143.51031     -1433.9245      3.6151976      0.50131885     0.35009592     0.016141435    0.0010067834   0.000540337  
     50500   1217.2046     -1574.3823      140.81575     -1433.5666      3.7404072      0.55689803     0.35980326     0.016239676    0.0010261317   0.00054506361
     50600   1244.5032     -1577.2436      143.97387     -1433.2697      3.7740671      0.57944071     0.35955955     0.016327848    0.0010488715   0.00055087739
     50700   1196.2629     -1571.0208      138.39306     -1432.6277      3.8960695      0.58507028     0.35701994     0.016428092    0.0010736432   0.00055623777
     50800   1241.0644     -1563.7491      143.57605     -1420.173       3.9972135      0.57124813     0.43712345     0.01654832     0.0010955518   0.00056400867
     50900   1302.2782     -1570.113       150.65773     -1419.4552      4.2229629      0.67256253     0.4803171      0.016672902    0.0011223841   0.00058037357
     51000   1268.0456     -1565.8516      146.69744     -1419.1542      4.3971569      0.67655192     0.55787472     0.016811603    0.0011556905   0.00060104909
     51100   1227.9263     -1560.8046      142.05613     -1418.7484      4.4637569      0.64587382     0.54850754     0.016975144    0.0011857932   0.00062454551
     51200   1238.46       -1561.4273      143.27475     -1418.1526      4.4204617      0.61675866     0.54367022     0.017125278    0.0012116058   0.00064743071
     51300   1257.6398     -1563.3852      145.49362     -1417.8916      4.5242403      0.63285187     0.5537608      0.017272268    0.0012367668   0.00067033403
     51400   1207.5177     -1557.1729      139.6951      -1417.4778      4.6765434      0.71777486     0.52316218     0.017437714    0.0012662829   0.00069206072
     51500   1222.0289     -1558.7177      141.37387     -1417.3438      5.1368128      0.77919841     0.57912206     0.017617926    0.001304056    0.00071442936
     51600   1231.7687     -1559.9225      142.50065     -1417.4218      5.2011212      0.76647566     0.59099123     0.017821644    0.0013425528   0.00073795971
     51700   1241.8231     -1560.6369      143.66382     -1416.9731      5.3231729      0.79024176     0.62453672     0.018038112    0.0013805289   0.00076550561
     51800   1231.1077     -1558.8731      142.42417     -1416.4489      5.6484674      0.76191658     0.65303937     0.018264596    0.0014181161   0.00079489177
     51900   1218.8461     -1557.1973      141.00566     -1416.1917      5.482156       0.78275953     0.69265602     0.018479615    0.0014520383   0.00082766716
     52000   1232.5555     -1558.3976      142.59167     -1415.8059      5.5074114      0.82256866     0.70137964     0.01869422     0.001491153    0.00086235661
     52100   1200.0163     -1553.8007      138.82728     -1414.9734      5.7796054      0.84772805     0.7405614      0.018916969    0.0015315629   0.00089900213
     52200   1229.4637     -1556.9315      142.23398     -1414.6975      5.6976818      0.82299529     0.71959636     0.019146716    0.0015710901   0.00093461002
     52300   1251.6558     -1559.2275      144.80134     -1414.4262      5.8048094      0.8159772      0.69468727     0.019380494    0.0016080134   0.0009671277 
     52400   1257.8582     -1559.88        145.51888     -1414.3612      6.0885867      0.85952014     0.70340018     0.019610503    0.0016461701   0.00099787904
     52500   1268.4838     -1560.7119      146.74814     -1413.9637      6.4867311      0.80702451     0.71403267     0.019865021    0.0016831607   0.0010289261 
     52600   1245.873      -1557.9718      144.13234     -1413.8395      6.7945191      0.82674217     0.75836761     0.020168109    0.0017179588   0.0010614616 
     52700   1290.7731     -1562.746       149.32674     -1413.4193      6.7707609      0.8270521      0.71098402     0.020469892    0.0017520311   0.0010936252 
     52800   1284.0281     -1561.6457      148.54642     -1413.0993      6.7628547      0.85261623     0.72946125     0.020752802    0.0017873134   0.0011249589 
     52900   1210.9795     -1552.905       140.0956      -1412.8094      6.7265201      0.87664305     0.74325251     0.02103454     0.0018230289   0.001156147  
     53000   1261.57       -1558.4931      145.9483      -1412.5449      6.6941632      0.95799164     0.75875586     0.021306491    0.0018641063   0.0011880422 
     53100   1282.3612     -1560.1286      148.35358     -1411.775       6.7614433      0.94812277     0.7329914      0.021576777    0.0019073614   0.0012198618 
     53200   1230.4176     -1553.7835      142.34435     -1411.4391      6.7862066      0.94197125     0.76101526     0.021837896    0.001947589    0.0012490655 
     53300   1237.8933     -1554.0292      143.20919     -1410.82        6.7112718      1.0259087      0.78814579     0.022103593    0.0019911105   0.001281559  
     53400   1261.0661     -1556.2309      145.89        -1410.3409      6.9083516      1.0761904      0.75569489     0.022356643    0.002041357    0.0013119144 
     53500   1259.4169     -1555.8245      145.6992      -1410.1253      6.7370082      1.0636458      0.81891211     0.02260205     0.0020914694   0.0013442232 
     53600   1259.6172     -1555.2554      145.72238     -1409.533       6.8421102      1.0756097      0.7854911      0.022845976    0.0021412583   0.0013773218 
     53700   1213.8207     -1549.5951      140.42428     -1409.1708      7.1128247      1.0420129      0.77140679     0.02309252     0.0021893943   0.0014066891 
     53800   1263.1341     -1553.8296      146.12924     -1407.7004      7.1073568      1.0350594      0.82426657     0.023361095    0.0022332536   0.001437481  
     53900   1191.0755     -1545.1863      137.79294     -1407.3933      7.2062641      1.0746209      0.87965694     0.023619039    0.0022781682   0.0014730058 
     54000   1272.781      -1554.5037      147.24528     -1407.2584      7.0243059      1.1208749      0.90554548     0.023856541    0.0023250129   0.001511303  
     54100   1286.9785     -1555.8485      148.88775     -1406.9608      7.3954092      1.0803358      0.90730641     0.024114631    0.0023716378   0.0015504606 
     54200   1272.1822     -1553.9151      147.17599     -1406.7391      7.4415058      1.1056501      0.97207464     0.02438301     0.0024168971   0.0015904497 
     54300   1266.7967     -1552.959       146.55296     -1406.406       7.4072886      1.1050029      1.0394546      0.024649247    0.0024624733   0.0016372695 
     54400   1250.1557     -1550.5665      144.62779     -1405.9387      7.2839215      1.1505814      1.0507591      0.024898757    0.0025084983   0.0016861716 
     54500   1224.7595     -1547.2488      141.68977     -1405.559       7.5351161      1.2310486      1.1322212      0.02514469     0.0025589883   0.0017363158 
     54600   1286.5863     -1553.9371      148.84238     -1405.0948      7.3867499      1.2955709      1.0744348      0.025388723    0.0026150632   0.0017880998 
     54700   1282.1052     -1551.8817      148.32397     -1403.5577      7.3377878      1.3154647      1.0715309      0.025623045    0.0026732075   0.0018353243 
     54800   1312.0223     -1555.2532      151.78501     -1403.4682      7.4285736      1.259999       1.1381052      0.025847888    0.0027287764   0.0018846676 
     54900   1235.2085     -1546.1024      142.89859     -1403.2038      7.8128303      1.3315204      1.1845783      0.026104593    0.0027847554   0.0019367696 
     55000   1270.0451     -1549.4389      146.92877     -1402.5101      7.5042888      1.4356619      1.1836319      0.026356486    0.0028455855   0.0019905784 
     55100   1214.7754     -1541.9523      140.53473     -1401.4176      7.5631497      1.5021873      1.1984774      0.026577622    0.0029140076   0.0020439716 
     55200   1289.1852     -1550.5715      149.14304     -1401.4285      7.5184396      1.509436       1.1962634      0.026788       0.0029827006   0.0020959024 
     55300   1234.8524     -1543.4136      142.8574      -1400.5562      7.8083072      1.5966103      1.253314       0.027015933    0.0030535567   0.0021505711 
     55400   1211.3596     -1539.8641      140.13956     -1399.7245      7.8397268      1.667799       1.3202604      0.027248493    0.0031303498   0.0022098252 
     55500   1728.6323     -1522.822       199.98172     -1322.8402      8.477129       1.7583686      1.395511       0.027489909    0.0032111658   0.0022730465 
     55600   1690.863      -1493.9735      195.61227     -1298.3612      9.499369       1.8498193      1.8267889      0.027806449    0.0032964631   0.0023531439 
     55700   3169.1859     -1394.4269      366.63623     -1027.7907      10.868474      2.3343884      2.9534985      0.028197039    0.0034008505   0.0024840703 
ERROR: Lost atoms: original 896 current 878
For more information see https://docs.lammps.org/err0008 (src/thermo.cpp:518)
