
# --------------------- INITIALIZATION ---------------------
units           metal
atom_style      atomic
boundary        p p p
atom_modify     map array

# --------------------- READ STRUCTURE ---------------------
read_data       structure.lmp
Reading data file ...
  triclinic box = (0 0 0) to (35.733531 30.946146 29.176306) with tilt (17.866765 17.866765 10.315382)
WARNING: Triclinic box skew is large. LAMMPS will run inefficiently. (src/domain.cpp:221)
  1 by 1 by 1 MPI processor grid
  reading atoms ...
  3024 atoms
  read_data CPU = 0.047 seconds

# --------------------- MASSES -----------------------------
mass 1 6.941       # Li
mass 2 54.938049   # Mn
mass 3 15.9994     # O

# --------------------- GROUPS -----------------------------
group Li type 1
432 atoms in group Li
group Mn type 2
864 atoms in group Mn
group O  type 3
1728 atoms in group O

# --------------------- FORCE FIELD ------------------------
pair_style      meam
pair_coeff      * * library.meam Li Mn O LiMnO.meam Li Mn O

# --------------------- ENERGY MINIMIZATION ----------------
minimize        1.0e-4 1.0e-7 1000 10000
Neighbor list info ...
  update: every = 1 steps, delay = 0 steps, check = yes
  max neighbors/atom: 2000, page size: 100000
  master list distance cutoff = 6.8
  ghost atom cutoff = 6.8
  binsize = 3.4, bins = 22 13 9
  2 neighbor lists, perpetual/occasional/extra = 2 0 0
  (1) pair meam, perpetual
      attributes: full, newton on
      pair build: full/bin/atomonly
      stencil: full/bin/3d
      bin: standard
  (2) pair meam, perpetual, half/full from (1)
      attributes: half, newton on
      pair build: halffull/newton/tri
      stencil: none
      bin: none
Per MPI rank memory allocation (min/avg/max) = 17.05 | 17.05 | 17.05 Mbytes
   Step          Temp          E_pair         E_mol          TotEng         Press     
         0   0             -5760.0349      0             -5760.0349     -12211.749    
         2   0             -5806.5928      0             -5806.5928     -30739.961    
Loop time of 0.873272 on 1 procs for 2 steps with 3024 atoms

100.0% CPU use with 1 MPI tasks x 1 OpenMP threads

Minimization stats:
  Stopping criterion = energy tolerance
  Energy initial, next-to-last, final = 
     -5760.03491649572  -5806.51347403562  -5806.59281587959
  Force two-norm initial, final = 33.003018 0.078048193
  Force max component initial, final = 0.79393726 0.0018780585
  Final line search alpha, max atom move = 1 0.0018780585
  Iterations, force evaluations = 2 4

MPI task timing breakdown:
Section |  min time  |  avg time  |  max time  |%varavg| %total
---------------------------------------------------------------
Pair    | 0.87186    | 0.87186    | 0.87186    |   0.0 | 99.84
Neigh   | 0          | 0          | 0          |   0.0 |  0.00
Comm    | 0.00061245 | 0.00061245 | 0.00061245 |   0.0 |  0.07
Output  | 0          | 0          | 0          |   0.0 |  0.00
Modify  | 0          | 0          | 0          |   0.0 |  0.00
Other   |            | 0.0007977  |            |       |  0.09

Nlocal:           3024 ave        3024 max        3024 min
Histogram: 1 0 0 0 0 0 0 0 0 0
Nghost:           6965 ave        6965 max        6965 min
Histogram: 1 0 0 0 0 0 0 0 0 0
Neighs:         184032 ave      184032 max      184032 min
Histogram: 1 0 0 0 0 0 0 0 0 0
FullNghs:       368064 ave      368064 max      368064 min
Histogram: 1 0 0 0 0 0 0 0 0 0

Total # of neighbors = 368064
Ave neighs/atom = 121.71429
Neighbor list builds = 0
Dangerous builds = 0

# --------------------- VELOCITY INIT ---------------------
velocity        all create ${temp} ${seed} mom yes rot yes dist gaussian
velocity        all create 1000 ${seed} mom yes rot yes dist gaussian
velocity        all create 1000 12345 mom yes rot yes dist gaussian
timestep        ${dt}
timestep        0.001

# ==========================================================
# STAGE 1: NPT Equilibration (Relax structure at target T & P=0)
# ==========================================================
fix eq all npt temp ${temp} ${temp} 10.0 iso 0.0 0.0 1000.0
fix eq all npt temp 1000 ${temp} 10.0 iso 0.0 0.0 1000.0
fix eq all npt temp 1000 1000 10.0 iso 0.0 0.0 1000.0

thermo          100
thermo_style    custom step temp pe ke etotal press vol

run             ${eqsteps}
run             20000
Per MPI rank memory allocation (min/avg/max) = 16.06 | 16.06 | 16.06 Mbytes
   Step          Temp          PotEng         KinEng         TotEng         Press          Volume    
         2   1000          -5806.5928      390.75342     -5415.8394     -17803.69       32263.598    
