(written by ASE)

896 atoms
3 atom types

0.0      23.822353919999998  xlo xhi
0.0      23.822353919999998  ylo yhi
0.0      23.822353919999998  zlo zhi

Atoms # atomic

     1   1      2.9777942399999997      2.9777942399999997      2.9777942399999993
     2   1      4.4666913599999987      4.4666913599999996      4.4666913599999996
     3   2      3.7222427999999992     0.74444855999999993     0.74444855999999981
     4   2     0.74444856000000004      3.7222427999999992     0.74444855999999981
     5   2     0.74444856000000026     0.74444855999999993      3.7222427999999983
     6   2     0.74444855999999993     0.74444855999999993     0.74444855999999981
     7   3      5.4459330402355199      2.1550832917843197      2.1550832917843192
     8   3      2.1550832917843201      5.4459330402355191      2.1550832917843192
     9   3      2.1550832917843201      2.1550832917843197      5.4459330402355191
    10   3      2.1550832917843197      2.1550832917843197      2.1550832917843192
    11   3      1.9985525597644795      5.2894023082156796      5.2894023082156787
    12   3      5.2894023082156787      1.9985525597644795      5.2894023082156787
    13   3      5.2894023082156778      5.2894023082156796      1.9985525597644798
    14   3      5.2894023082156787      5.2894023082156796      5.2894023082156787
    15   1      2.9777942399999988      2.9777942399999997      8.9333827199999991
    16   1      4.4666913599999996      4.4666913599999987      10.422279839999998
    17   2      3.7222427999999996     0.74444855999999981      6.7000370399999989
    18   2     0.74444856000000048      3.7222427999999992      6.7000370399999989
    19   2     0.74444856000000015     0.74444855999999926      9.6778312799999977
    20   2     0.74444855999999959     0.74444855999999981      6.7000370399999989
    21   3      5.4459330402355191      2.1550832917843197      8.1106717717843182
    22   3      2.1550832917843197      5.4459330402355182      8.1106717717843182
    23   3      2.1550832917843192      2.1550832917843192      11.401521520235518
    24   3      2.1550832917843197      2.1550832917843197      8.1106717717843182
    25   3      1.9985525597644789      5.2894023082156796      11.244990788215677
    26   3      5.2894023082156796      1.9985525597644798      11.244990788215677
    27   3      5.2894023082156778      5.2894023082156796      7.9541410397644787
    28   3      5.2894023082156796      5.2894023082156796      11.244990788215677
    29   1      2.9777942400000001      2.9777942399999988      14.888971199999997
    30   1      4.4666913599999996      4.4666913599999987      16.377868319999997
    31   2      3.7222427999999996     0.74444855999999882      12.655625519999999
    32   2     0.74444855999999815      3.7222427999999983      12.655625519999999
    33   2     0.74444855999999904     0.74444855999999948      15.633419759999997
    34   2     0.74444856000000081     0.74444855999999882      12.655625519999999
    35   3      5.4459330402355199      2.1550832917843197      14.066260251784318
    36   3      2.1550832917843188      5.4459330402355191      14.066260251784318
    37   3      2.1550832917843188      2.1550832917843197      17.357110000235515
    38   3      2.1550832917843179      2.1550832917843197      14.066260251784318
    39   3      1.9985525597644793      5.2894023082156787      17.200579268215677
    40   3      5.2894023082156805      1.9985525597644795      17.200579268215677
    41   3      5.2894023082156796      5.2894023082156787      13.909729519764477
    42   3      5.2894023082156787      5.2894023082156787      17.200579268215677
    43   1      2.9777942399999997      2.9777942399999979      20.844559679999996
    44   1      4.4666913599999987      4.4666913599999978      22.333456799999993
    45   2      3.7222427999999983     0.74444855999999937      18.611213999999997
    46   2     0.74444856000000015      3.7222427999999983      18.611213999999997
    47   2     0.74444856000000026     0.74444855999999826      21.589008239999995
    48   2     0.74444855999999926     0.74444855999999937      18.611213999999997
    49   3      5.4459330402355199      2.1550832917843192      20.021848731784313
    50   3      2.1550832917843228      5.4459330402355182      20.021848731784313
    51   3      2.1550832917843201      2.1550832917843197      23.312698480235518
    52   3       2.155083291784321      2.1550832917843192      20.021848731784313
    53   3       1.998552559764478      5.2894023082156787      23.156167748215676
    54   3      5.2894023082156787      1.9985525597644793      23.156167748215676
    55   3      5.2894023082156787      5.2894023082156787      19.865317999764478
    56   3      5.2894023082156751      5.2894023082156787      23.156167748215676
    57   1      2.9777942399999979      8.9333827199999991      2.9777942399999993
    58   1      4.4666913600000004      10.422279839999998      4.4666913599999996
    59   2      3.7222427999999996      6.7000370399999998     0.74444855999999981
    60   2     0.74444856000000026      9.6778312799999977     0.74444855999999981
    61   2     0.74444856000000004      6.7000370399999998      3.7222427999999983
    62   2     0.74444855999999904      6.7000370399999998     0.74444855999999981
    63   3      5.4459330402355182        8.11067177178432      2.1550832917843192
    64   3      2.1550832917843197      11.401521520235519      2.1550832917843192
    65   3      2.1550832917843197      8.1106717717843182      5.4459330402355191
    66   3      2.1550832917843201        8.11067177178432      2.1550832917843192
    67   3      1.9985525597644787      11.244990788215681      5.2894023082156787
    68   3      5.2894023082156778      7.9541410397644796      5.2894023082156787
    69   3      5.2894023082156769      11.244990788215681      1.9985525597644798
    70   3      5.2894023082156778      11.244990788215681      5.2894023082156787
    71   1      2.9777942400000006      8.9333827199999991      8.9333827199999991
    72   1      4.4666913599999996             10.42227984      10.422279839999998
    73   2      3.7222427999999996      6.7000370400000007      6.7000370399999989
    74   2     0.74444855999999915      9.6778312799999977      6.7000370399999989
    75   2     0.74444855999999837      6.7000370399999989      9.6778312799999977
    76   2     0.74444856000000048      6.7000370400000007      6.7000370399999989
    77   3      5.4459330402355191      8.1106717717843182      8.1106717717843182
    78   3      2.1550832917843188      11.401521520235518      8.1106717717843182
    79   3      2.1550832917843192      8.1106717717843182      11.401521520235518
    80   3      2.1550832917843179      8.1106717717843182      8.1106717717843182
    81   3      1.9985525597644789      11.244990788215677      11.244990788215677
    82   3      5.2894023082156796      7.9541410397644778      11.244990788215677
    83   3      5.2894023082156796      11.244990788215677      7.9541410397644787
    84   3      5.2894023082156796      11.244990788215677      11.244990788215677
    85   1      2.9777942399999993      8.9333827200000009      14.888971199999997
    86   1       4.466691359999996      10.422279839999998      16.377868319999997
    87   2      3.7222427999999987      6.7000370399999989      12.655625519999999
    88   2     0.74444855999999993      9.6778312799999995      12.655625519999999
    89   2     0.74444855999999993      6.7000370399999998      15.633419759999997
    90   2     0.74444855999999904      6.7000370399999989      12.655625519999999
    91   3      5.4459330402355182      8.1106717717843182      14.066260251784318
    92   3      2.1550832917843197      11.401521520235519      14.066260251784318
    93   3      2.1550832917843206        8.11067177178432      17.357110000235515
    94   3      2.1550832917843188      8.1106717717843182      14.066260251784318
    95   3      1.9985525597644775      11.244990788215681      17.200579268215677
    96   3      5.2894023082156787      7.9541410397644787      17.200579268215677
    97   3      5.2894023082156778      11.244990788215679      13.909729519764477
    98   3      5.2894023082156751      11.244990788215681      17.200579268215677
    99   1      2.9777942399999962      8.9333827199999973      20.844559679999996
   100   1      4.4666913600000004      10.422279840000002      22.333456799999993
   101   2      3.7222428000000001       6.700037039999998      18.611213999999997
   102   2     0.74444856000000104      9.6778312799999977      18.611213999999997
   103   2     0.74444856000000115      6.7000370400000007      21.589008239999995
   104   2     0.74444856000000015       6.700037039999998      18.611213999999997
   105   3      5.4459330402355199        8.11067177178432      20.021848731784313
   106   3       2.155083291784321      11.401521520235518      20.021848731784313
   107   3      2.1550832917843183      8.1106717717843182      23.312698480235518
   108   3      2.1550832917843192        8.11067177178432      20.021848731784313
   109   3      1.9985525597644798      11.244990788215677      23.156167748215676
   110   3      5.2894023082156787      7.9541410397644787      23.156167748215676
   111   3      5.2894023082156805      11.244990788215675      19.865317999764478
   112   3      5.2894023082156769      11.244990788215677      23.156167748215676
   113   1      2.9777942399999993      14.888971199999999      2.9777942399999993
   114   1      4.4666913599999996      16.377868319999997      4.4666913599999996
   115   2      3.7222427999999996      12.655625519999997     0.74444855999999981
   116   2     0.74444855999999882      15.633419759999997     0.74444855999999981
   117   2     0.74444855999999848      12.655625519999999      3.7222427999999983
   118   2     0.74444856000000081      12.655625519999997     0.74444855999999981
   119   3      5.4459330402355199      14.066260251784319      2.1550832917843192
   120   3      2.1550832917843192      17.357110000235519      2.1550832917843192
   121   3      2.1550832917843192      14.066260251784318      5.4459330402355191
   122   3      2.1550832917843183      14.066260251784319      2.1550832917843192
   123   3      1.9985525597644782      17.200579268215677      5.2894023082156787
   124   3      5.2894023082156796      13.909729519764477      5.2894023082156787
   125   3      5.2894023082156778      17.200579268215677      1.9985525597644798
   126   3      5.2894023082156769      17.200579268215677      5.2894023082156787
   127   1      2.9777942399999997      14.888971199999999      8.9333827199999991
   128   1       4.466691359999996      16.377868319999997      10.422279839999998
   129   2      3.7222427999999987      12.655625519999997      6.7000370399999989
   130   2     0.74444856000000004      15.633419759999997      6.7000370399999989
   131   2      0.7444485599999997      12.655625519999999      9.6778312799999977
   132   2     0.74444855999999959      12.655625519999997      6.7000370399999989
   133   3      5.4459330402355191      14.066260251784318      8.1106717717843182
   134   3      2.1550832917843188      17.357110000235519      8.1106717717843182
   135   3      2.1550832917843201      14.066260251784318      11.401521520235518
   136   3      2.1550832917843197      14.066260251784318      8.1106717717843182
   137   3      1.9985525597644789       17.20057926821568      11.244990788215677
   138   3      5.2894023082156796      13.909729519764477      11.244990788215677
   139   3      5.2894023082156787       17.20057926821568      7.9541410397644787
   140   3       5.289402308215676       17.20057926821568      11.244990788215677
   141   1      2.9777942399999966      14.888971199999999      14.888971199999997
   142   1      4.4666913599999978      16.377868319999997      16.377868319999997
   143   2      3.7222428000000005      12.655625519999997      12.655625519999999
   144   2     0.74444855999999993      15.633419759999999      12.655625519999999
   145   2     0.74444856000000081      12.655625520000001      15.633419759999997
   146   2     0.74444856000000081      12.655625519999997      12.655625519999999
   147   3      5.4459330402355199      14.066260251784318      14.066260251784318
   148   3      2.1550832917843197      17.357110000235515      14.066260251784318
   149   3      2.1550832917843197      14.066260251784319      17.357110000235515
   150   3      2.1550832917843188      14.066260251784318      14.066260251784318
   151   3      1.9985525597644793       17.20057926821568      17.200579268215677
   152   3      5.2894023082156787      13.909729519764483      17.200579268215677
   153   3      5.2894023082156796       17.20057926821568      13.909729519764477
   154   3      5.2894023082156769       17.20057926821568      17.200579268215677
   155   1      2.9777942399999979      14.888971199999999      20.844559679999996
   156   1      4.4666913600000022      16.377868319999997      22.333456799999993
   157   2      3.7222428000000001      12.655625520000001      18.611213999999997
   158   2     0.74444856000000015      15.633419759999999      18.611213999999997
   159   2     0.74444856000000026      12.655625519999997      21.589008239999995
   160   2     0.74444855999999837      12.655625520000001      18.611213999999997
   161   3      5.4459330402355235      14.066260251784316      20.021848731784313
   162   3      2.1550832917843228      17.357110000235519      20.021848731784313
   163   3      2.1550832917843201      14.066260251784319      23.312698480235518
   164   3      2.1550832917843228      14.066260251784316      20.021848731784313
   165   3      1.9985525597644798      17.200579268215677      23.156167748215676
   166   3      5.2894023082156805      13.909729519764479      23.156167748215676
   167   3      5.2894023082156805      17.200579268215677      19.865317999764478
   168   3      5.2894023082156769      17.200579268215677      23.156167748215676
   169   1      2.9777942399999988             20.84455968      2.9777942399999993
   170   1      4.4666913599999978      22.333456799999997      4.4666913599999996
   171   2      3.7222427999999992               18.611214     0.74444855999999981
   172   2     0.74444855999999904      21.589008240000002     0.74444855999999981
   173   2     0.74444856000000093      18.611213999999997      3.7222427999999983
   174   2     0.74444855999999937               18.611214     0.74444855999999981
   175   3      5.4459330402355191      20.021848731784317      2.1550832917843192
   176   3      2.1550832917843206      23.312698480235518      2.1550832917843192
   177   3      2.1550832917843206      20.021848731784317      5.4459330402355191
   178   3      2.1550832917843197      20.021848731784317      2.1550832917843192
   179   3      1.9985525597644778      23.156167748215676      5.2894023082156787
   180   3      5.2894023082156778      19.865317999764478      5.2894023082156787
   181   3      5.2894023082156778      23.156167748215676      1.9985525597644798
   182   3      5.2894023082156751      23.156167748215676      5.2894023082156787
   183   1      2.9777942399999979      20.844559679999996      8.9333827199999991
   184   1      4.4666913599999996      22.333456799999993      10.422279839999998
   185   2      3.7222428000000014      18.611213999999997      6.7000370399999989
   186   2     0.74444856000000137      21.589008239999998      6.7000370399999989
   187   2     0.74444856000000281      18.611213999999993      9.6778312799999977
   188   2     0.74444856000000181      18.611213999999997      6.7000370399999989
   189   3      5.4459330402355208      20.021848731784317      8.1106717717843182
   190   3      2.1550832917843206      23.312698480235515      8.1106717717843182
   191   3       2.155083291784321      20.021848731784313      11.401521520235518
   192   3      2.1550832917843197      20.021848731784317      8.1106717717843182
   193   3      1.9985525597644798       23.15616774821568      11.244990788215677
   194   3      5.2894023082156814      19.865317999764478      11.244990788215677
   195   3      5.2894023082156805       23.15616774821568      7.9541410397644787
   196   3      5.2894023082156778       23.15616774821568      11.244990788215677
   197   1      2.9777942399999984             20.84455968      14.888971199999997
   198   1      4.4666913599999996      22.333456799999997      16.377868319999997
   199   2      3.7222427999999979      18.611213999999997      12.655625519999999
   200   2     0.74444855999999637      21.589008239999998      12.655625519999999
   201   2     0.74444855999999815      18.611213999999997      15.633419759999997
   202   2     0.74444855999999637      18.611213999999997      12.655625519999999
   203   3      5.4459330402355182      20.021848731784317      14.066260251784318
   204   3       2.155083291784317      23.312698480235515      14.066260251784318
   205   3      2.1550832917843179      20.021848731784317      17.357110000235515
   206   3      2.1550832917843161      20.021848731784317      14.066260251784318
   207   3      1.9985525597644767       23.15616774821568      17.200579268215677
   208   3      5.2894023082156769      19.865317999764482      17.200579268215677
   209   3       5.289402308215676       23.15616774821568      13.909729519764477
   210   3      5.2894023082156769       23.15616774821568      17.200579268215677
   211   1      2.9777942399999997             20.84455968      20.844559679999996
   212   1      4.4666913599999987      22.333456799999997      22.333456799999993
   213   2      3.7222427999999965      18.611213999999997      18.611213999999997
   214   2     0.74444855999999837      21.589008239999998      18.611213999999997
   215   2     0.74444856000000026      18.611213999999993      21.589008239999995
   216   2     0.74444855999999837      18.611213999999997      18.611213999999997
   217   3      5.4459330402355164      20.021848731784317      20.021848731784313
   218   3       2.155083291784321      23.312698480235518      20.021848731784313
   219   3      2.1550832917843183      20.021848731784313      23.312698480235518
   220   3      2.1550832917843192      20.021848731784317      20.021848731784313
   221   3       1.998552559764478      23.156167748215676      23.156167748215676
   222   3      5.2894023082156751      19.865317999764478      23.156167748215676
   223   3      5.2894023082156751      23.156167748215676      19.865317999764478
   224   3      5.2894023082156787      23.156167748215676      23.156167748215676
   225   1      8.9333827199999991      2.9777942399999997      2.9777942399999993
   226   1      10.422279839999998      4.4666913599999996      4.4666913599999996
   227   2      9.6778312799999995     0.74444855999999993     0.74444855999999981
   228   2      6.7000370399999989      3.7222427999999992     0.74444855999999981
   229   2      6.7000370399999989     0.74444855999999993      3.7222427999999983
   230   2      6.7000370399999989     0.74444855999999993     0.74444855999999981
   231   3      11.401521520235519      2.1550832917843197      2.1550832917843192
   232   3        8.11067177178432      5.4459330402355191      2.1550832917843192
   233   3      8.1106717717843182      2.1550832917843197      5.4459330402355191
   234   3      8.1106717717843182      2.1550832917843197      2.1550832917843192
   235   3      7.9541410397644796      5.2894023082156796      5.2894023082156787
   236   3      11.244990788215679      1.9985525597644795      5.2894023082156787
   237   3      11.244990788215679      5.2894023082156796      1.9985525597644798
   238   3      11.244990788215679      5.2894023082156796      5.2894023082156787
   239   1      8.9333827199999991      2.9777942399999997      8.9333827199999991
   240   1      10.422279839999998      4.4666913599999987      10.422279839999998
   241   2      9.6778312799999995     0.74444855999999981      6.7000370399999989
   242   2      6.7000370400000016      3.7222427999999992      6.7000370399999989
   243   2      6.7000370399999998     0.74444855999999926      9.6778312799999977
   244   2      6.7000370399999998     0.74444855999999981      6.7000370399999989
   245   3      11.401521520235519      2.1550832917843197      8.1106717717843182
   246   3        8.11067177178432      5.4459330402355182      8.1106717717843182
   247   3      8.1106717717843217      2.1550832917843192      11.401521520235518
   248   3        8.11067177178432      2.1550832917843197      8.1106717717843182
   249   3      7.9541410397644796      5.2894023082156796      11.244990788215677
   250   3      11.244990788215681      1.9985525597644798      11.244990788215677
   251   3      11.244990788215679      5.2894023082156796      7.9541410397644787
   252   3      11.244990788215677      5.2894023082156796      11.244990788215677
   253   1      8.9333827199999991      2.9777942399999988      14.888971199999997
   254   1             10.42227984      4.4666913599999987      16.377868319999997
   255   2      9.6778312799999995     0.74444855999999882      12.655625519999999
   256   2      6.7000370400000016      3.7222427999999983      12.655625519999999
   257   2      6.7000370400000016     0.74444855999999948      15.633419759999997
   258   2      6.7000370399999998     0.74444855999999882      12.655625519999999
   259   3      11.401521520235521      2.1550832917843197      14.066260251784318
   260   3        8.11067177178432      5.4459330402355191      14.066260251784318
   261   3        8.11067177178432      2.1550832917843197      17.357110000235515
   262   3        8.11067177178432      2.1550832917843197      14.066260251784318
   263   3      7.9541410397644805      5.2894023082156787      17.200579268215677
   264   3      11.244990788215681      1.9985525597644795      17.200579268215677
   265   3      11.244990788215681      5.2894023082156787      13.909729519764477
   266   3      11.244990788215677      5.2894023082156787      17.200579268215677
   267   1      8.9333827199999991      2.9777942399999979      20.844559679999996
   268   1      10.422279840000003      4.4666913599999978      22.333456799999993
   269   2      9.6778312799999977     0.74444855999999937      18.611213999999997
   270   2       6.700037039999998      3.7222427999999983      18.611213999999997
   271   2      6.7000370399999989     0.74444855999999826      21.589008239999995
   272   2      6.7000370399999962     0.74444855999999937      18.611213999999997
   273   3      11.401521520235519      2.1550832917843192      20.021848731784313
   274   3        8.11067177178432      5.4459330402355182      20.021848731784313
   275   3      8.1106717717843182      2.1550832917843197      23.312698480235518
   276   3      8.1106717717843182      2.1550832917843192      20.021848731784313
   277   3       7.954141039764477      5.2894023082156787      23.156167748215676
   278   3      11.244990788215679      1.9985525597644793      23.156167748215676
   279   3      11.244990788215677      5.2894023082156787      19.865317999764478
   280   3      11.244990788215679      5.2894023082156787      23.156167748215676
   281   1      8.9333827199999991      8.9333827199999991      2.9777942399999993
   282   1      10.422279839999996      10.422279839999998      4.4666913599999996
   283   2      9.6778312799999995      6.7000370399999998     0.74444855999999981
   284   2      6.7000370400000007      9.6778312799999977     0.74444855999999981
   285   2      6.7000370399999998      6.7000370399999998      3.7222427999999983
   286   2      6.7000370399999989      6.7000370399999998     0.74444855999999981
   287   3      11.401521520235519        8.11067177178432      2.1550832917843192
   288   3      8.1106717717843217      11.401521520235519      2.1550832917843192
   289   3        8.11067177178432      8.1106717717843182      5.4459330402355191
   290   3        8.11067177178432        8.11067177178432      2.1550832917843192
   291   3      7.9541410397644778      11.244990788215681      5.2894023082156787
   292   3      11.244990788215679      7.9541410397644796      5.2894023082156787
   293   3      11.244990788215679      11.244990788215681      1.9985525597644798
   294   3      11.244990788215675      11.244990788215681      5.2894023082156787
   295   1      8.9333827199999973      8.9333827199999991      8.9333827199999991
   296   1      10.422279839999998             10.42227984      10.422279839999998
   297   2      9.6778312800000013      6.7000370400000007      6.7000370399999989
   298   2      6.7000370400000016      9.6778312799999977      6.7000370399999989
   299   2      6.7000370400000016      6.7000370399999989      9.6778312799999977
   300   2      6.7000370400000016      6.7000370400000007      6.7000370399999989
   301   3      11.401521520235519      8.1106717717843182      8.1106717717843182
   302   3        8.11067177178432      11.401521520235518      8.1106717717843182
   303   3        8.11067177178432      8.1106717717843182      11.401521520235518
   304   3      8.1106717717843182      8.1106717717843182      8.1106717717843182
   305   3      7.9541410397644814      11.244990788215677      11.244990788215677
   306   3      11.244990788215681      7.9541410397644778      11.244990788215677
   307   3      11.244990788215681      11.244990788215677      7.9541410397644787
   308   3      11.244990788215679      11.244990788215677      11.244990788215677
   309   1      8.9333827199999991      8.9333827200000009      14.888971199999997
   310   1             10.42227984      10.422279839999998      16.377868319999997
   311   2      9.6778312799999977      6.7000370399999989      12.655625519999999
   312   2      6.7000370399999962      9.6778312799999995      12.655625519999999
   313   2       6.700037039999998      6.7000370399999998      15.633419759999997
   314   2      6.7000370399999962      6.7000370399999989      12.655625519999999
   315   3      11.401521520235518      8.1106717717843182      14.066260251784318
   316   3      8.1106717717843182      11.401521520235519      14.066260251784318
   317   3      8.1106717717843164        8.11067177178432      17.357110000235515
   318   3      8.1106717717843164      8.1106717717843182      14.066260251784318
   319   3       7.954141039764477      11.244990788215681      17.200579268215677
   320   3      11.244990788215677      7.9541410397644787      17.200579268215677
   321   3      11.244990788215677      11.244990788215679      13.909729519764477
   322   3      11.244990788215677      11.244990788215681      17.200579268215677
   323   1      8.9333827199999991      8.9333827199999973      20.844559679999996
   324   1             10.42227984      10.422279840000002      22.333456799999993
   325   2      9.6778312799999959       6.700037039999998      18.611213999999997
   326   2       6.700037039999998      9.6778312799999977      18.611213999999997
   327   2      6.7000370399999989      6.7000370400000007      21.589008239999995
   328   2       6.700037039999998       6.700037039999998      18.611213999999997
   329   3      11.401521520235516        8.11067177178432      20.021848731784313
   330   3        8.11067177178432      11.401521520235518      20.021848731784313
   331   3      8.1106717717843182      8.1106717717843182      23.312698480235518
   332   3      8.1106717717843182        8.11067177178432      20.021848731784313
   333   3      7.9541410397644787      11.244990788215677      23.156167748215676
   334   3      11.244990788215675      7.9541410397644787      23.156167748215676
   335   3      11.244990788215674      11.244990788215675      19.865317999764478
   336   3      11.244990788215679      11.244990788215677      23.156167748215676
   337   1      8.9333827199999956      14.888971199999999      2.9777942399999993
   338   1      10.422279839999998      16.377868319999997      4.4666913599999996
   339   2      9.6778312800000013      12.655625519999997     0.74444855999999981
   340   2      6.7000370400000016      15.633419759999997     0.74444855999999981
   341   2      6.7000370400000016      12.655625519999999      3.7222427999999983
   342   2      6.7000370400000007      12.655625519999997     0.74444855999999981
   343   3      11.401521520235521      14.066260251784319      2.1550832917843192
   344   3        8.11067177178432      17.357110000235519      2.1550832917843192
   345   3        8.11067177178432      14.066260251784318      5.4459330402355191
   346   3        8.11067177178432      14.066260251784319      2.1550832917843192
   347   3      7.9541410397644796      17.200579268215677      5.2894023082156787
   348   3      11.244990788215681      13.909729519764477      5.2894023082156787
   349   3      11.244990788215681      17.200579268215677      1.9985525597644798
   350   3      11.244990788215677      17.200579268215677      5.2894023082156787
   351   1      8.9333827199999991      14.888971199999999      8.9333827199999991
   352   1             10.42227984      16.377868319999997      10.422279839999998
   353   2       9.677831280000003      12.655625519999997      6.7000370399999989
   354   2      6.7000370400000016      15.633419759999997      6.7000370399999989
   355   2      6.7000370399999998      12.655625519999999      9.6778312799999977
   356   2      6.7000370400000016      12.655625519999997      6.7000370399999989
   357   3      11.401521520235521      14.066260251784318      8.1106717717843182
   358   3        8.11067177178432      17.357110000235519      8.1106717717843182
   359   3      8.1106717717843217      14.066260251784318      11.401521520235518