(written by ASE)

3024 atoms
3 atom types

0.0      35.733530880000004  xlo xhi
0.0      30.946145508995706  ylo yhi
0.0      29.176305787995314  zlo zhi
     17.866765440000002      17.866765440000002      10.315381836331905  xy xz yz

Atoms # atomic

     1   1      5.9555884800000012      3.4384606121106338      2.4313588156662758
     2   1      8.9333827200000009        5.15769091816595      3.6470382234994134
     3   2      4.4666913600000004     0.85961515302765845     0.60783970391656894
     4   2      2.9777942400000006      3.4384606121106334     0.60783970391656872
     5   2      2.9777942400000006      1.7192303060553169      3.0391985195828441
     6   2      1.4888971200000003     0.85961515302765845     0.60783970391656894
     7   3      7.6010163320198405      2.4884758372754834      1.7596181393563652
     8   3      5.9555914577942408      5.3384353194718512      1.7596181393563652
     9   3      5.9555914577942408      3.4384623313409399      4.4465857073136368
    10   3      4.3101665835686411      2.4884758372754834      1.7596181393563652
    11   3      7.2879548679801598      6.1076756930011005      4.3187788998093231
    12   3      8.9333797422057604      3.2577162108047322      4.3187788998093231
    13   3      8.9333797422057604      5.1576891989356444      1.6318113318520522
    14   3      10.578804616431361      6.1076756930011005      4.3187788998093231
    15   1      8.9333827200000009      5.1576909181659509      7.2940764469988277
    16   1      11.911176960000002      6.8769212242212676      8.5097558548319654
    17   2       7.444485600000001      2.5788454590829755      5.4705573352491204
    18   2      5.9555884800000012        5.15769091816595      5.4705573352491204
    19   2      5.9555884800000012      3.4384606121106338      7.9019161509153966
    20   2      4.4666913600000004      2.5788454590829755      5.4705573352491204
    21   3       10.57881057201984      4.2077061433308005      6.6223357706889177
    22   3      8.9333856977942414      7.0576656255271688      6.6223357706889177
    23   3      8.9333856977942414      5.1576926373962566      9.3093033386461883
    24   3      7.2879608235686417      4.2077061433308005      6.6223357706889177
    25   3      10.265749107980159       7.826905999056418      9.1814965311418746
    26   3       11.91117398220576      4.9769465168600489      9.1814965311418746
    27   3       11.91117398220576      6.8769195049909619      6.4945289631846039
    28   3      13.556598856431361       7.826905999056418      9.1814965311418746
    29   1      11.911176960000002      6.8769212242212676      12.156794078331378
    30   1      14.888971200000002      8.5961515302765843      13.372473486164518
    31   2      10.422279840000002      4.2980757651382921      10.333274966581673
    32   2      8.9333827200000009      6.8769212242212676      10.333274966581673
    33   2      8.9333827200000009      5.1576909181659509      12.764633782247948
    34   2      7.4444856000000019      4.2980757651382921      10.333274966581673
    35   3      13.556604812019842      5.9269364493861181      11.485053402021469
    36   3      11.911179937794241      8.7768959315824855      11.485053402021469
    37   3      11.911179937794241      6.8769229434515742      14.172020969978741
    38   3      10.265755063568642      5.9269364493861181      11.485053402021469
    39   3      13.243543347980161      9.5461363051117338      14.044214162474427
    40   3      14.888968222205762      6.6961768229153664      14.044214162474427
    41   3      14.888968222205762      8.5961498110462777      11.357246594517155
    42   3      16.534393096431362      9.5461363051117338      14.044214162474427
    43   1      14.888971200000002      8.5961515302765843      17.019511709663931
    44   1      17.866765440000002        10.3153818363319      18.235191117497067
    45   2      13.400074080000001      6.0173060711936097      15.195992597914225
    46   2      11.911176960000002      8.5961515302765843      15.195992597914225
    47   2      11.911176960000002      6.8769212242212676      17.627351413580499
    48   2      10.422279840000002      6.0173060711936097      15.195992597914225
    49   3      16.534399052019843      7.6461667554414348      16.347771033354018
    50   3      14.888974177794243      10.496126237637801      16.347771033354018
    51   3      14.888974177794243      8.5961532495068909      19.034738601311293
    52   3      13.243549303568642      7.6461667554414348      16.347771033354018
    53   3      16.221337587980159      11.265366611167051      18.906931793806979
    54   3      17.866762462205763      8.4154071289706831      18.906931793806979
    55   3      17.866762462205763      10.315380117101595      16.219964225849708
    56   3       19.51218733643136      11.265366611167051      18.906931793806979
    57   1      17.866765440000002      10.315381836331902      21.882229340996481
    58   1      20.844559680000003      12.034612142387219      23.097908748829621
    59   2      16.377868320000005      7.7365363772489273      20.058710229246774
    60   2      14.888971200000004      10.315381836331902      20.058710229246774
    61   2      14.888971200000004      8.5961515302765843      22.490069044913049
    62   2      13.400074080000003      7.7365363772489273      20.058710229246774
    63   3      19.512193292019845      9.3653970614967523      21.210488664686572
    64   3      17.866768417794244      12.215356543693121      21.210488664686572
    65   3      17.866768417794244      10.315383555562208      23.897456232643844
    66   3      16.221343543568643      9.3653970614967523      21.210488664686572
    67   3       19.19913182798016      12.984596917222369       23.76964942513953
    68   3      20.844556702205765      10.134637435026001       23.76964942513953
    69   3      20.844556702205765      12.034610423156913      21.082681857182259
    70   3      22.489981576431362      12.984596917222369       23.76964942513953
    71   1      20.844559680000003      12.034612142387219      26.744946972329032
    72   1      23.822353920000005      13.753842448442535      27.960626380162172
    73   2      19.355662560000006      9.4557666833042422      24.921427860579325
    74   2      17.866765440000005      12.034612142387218      24.921427860579325
    75   2      17.866765440000005      10.315381836331902        27.3527866762456
    76   2      16.377868320000005      9.4557666833042422      24.921427860579325
    77   3      22.489987532019846      11.084627367552068      26.073206296019123
    78   3      20.844562657794246      13.934586849748436      26.073206296019123
    79   3      20.844562657794246      12.034613861617524      28.760173863976394
    80   3      19.199137783568645      11.084627367552068      26.073206296019123
    81   3      22.176926067980162      14.703827223277687      28.632367056472081
    82   3      23.822350942205766      11.853867741081316      28.632367056472081
    83   3      23.822350942205766       13.75384072921223      25.945399488514809
    84   3      25.467775816431363      14.703827223277687      28.632367056472081
    85   1      8.9333827200000009      8.5961515302765843      2.4313588156662753
    86   1      11.911176960000002        10.3153818363319      3.6470382234994134
    87   2       7.444485600000001      6.0173060711936088     0.60783970391656861
    88   2      5.9555884800000012      8.5961515302765825     0.60783970391656839
    89   2      5.9555884800000012      6.8769212242212676      3.0391985195828437
    90   2      4.4666913600000004      6.0173060711936088     0.60783970391656861
    91   3       10.57881057201984      7.6461667554414339       1.759618139356365
    92   3      8.9333856977942414      10.496126237637801      1.7596181393563648
    93   3      8.9333856977942414      8.5961532495068891      4.4465857073136359
    94   3      7.2879608235686417      7.6461667554414339       1.759618139356365
    95   3      10.265749107980159      11.265366611167051      4.3187788998093222
    96   3       11.91117398220576      8.4154071289706813      4.3187788998093222
    97   3       11.91117398220576      10.315380117101595      1.6318113318520517
    98   3      13.556598856431361      11.265366611167051      4.3187788998093222
    99   1      11.911176960000002        10.3153818363319      7.2940764469988268
   100   1      14.888971200000002      12.034612142387218      8.5097558548319654
   101   2      10.422279840000002      7.7365363772489264      5.4705573352491195
   102   2      8.9333827200000009        10.3153818363319      5.4705573352491195
   103   2      8.9333827200000009      8.5961515302765843      7.9019161509153957
   104   2      7.4444856000000019      7.7365363772489264      5.4705573352491195
   105   3      13.556604812019842      9.3653970614967506      6.6223357706889168
   106   3      11.911179937794241      12.215356543693119      6.6223357706889168
   107   3      11.911179937794241      10.315383555562207      9.3093033386461883
   108   3      10.265755063568642      9.3653970614967506      6.6223357706889168
   109   3      13.243543347980161      12.984596917222367      9.1814965311418746
   110   3      14.888968222205762      10.134637435025999      9.1814965311418746
   111   3      14.888968222205762      12.034610423156911       6.494528963184603
   112   3      16.534393096431362      12.984596917222367      9.1814965311418746
   113   1      14.888971200000002      12.034612142387219      12.156794078331378
   114   1      17.866765440000002      13.753842448442535      13.372473486164518
   115   2      13.400074080000001      9.4557666833042422      10.333274966581673
   116   2      11.911176960000002      12.034612142387218      10.333274966581673
   117   2      11.911176960000002      10.315381836331902      12.764633782247948
   118   2      10.422279840000002      9.4557666833042422      10.333274966581673
   119   3      16.534399052019843      11.084627367552068      11.485053402021469
   120   3      14.888974177794243      13.934586849748436      11.485053402021469
   121   3      14.888974177794243      12.034613861617524      14.172020969978741
   122   3      13.243549303568642      11.084627367552068      11.485053402021469
   123   3      16.221337587980159      14.703827223277687      14.044214162474425
   124   3      17.866762462205763      11.853867741081316      14.044214162474427
   125   3      17.866762462205763       13.75384072921223      11.357246594517155
   126   3       19.51218733643136      14.703827223277687      14.044214162474425
   127   1      17.866765440000002      13.753842448442535      17.019511709663931
   128   1      20.844559680000003      15.473072754497851      18.235191117497067
   129   2      16.377868320000005      11.174996989359558      15.195992597914225
   130   2      14.888971200000004      13.753842448442533      15.195992597914225
   131   2      14.888971200000004      12.034612142387218      17.627351413580499
   132   2      13.400074080000003      11.174996989359558      15.195992597914225
   133   3      19.512193292019845      12.803857673607384      16.347771033354018
   134   3      17.866768417794244      15.653817155803752      16.347771033354018
   135   3      17.866768417794244       13.75384416767284      19.034738601311293
   136   3      16.221343543568643      12.803857673607384      16.347771033354018
   137   3       19.19913182798016      16.423057529333001      18.906931793806979
   138   3      20.844556702205765      13.573098047136632      18.906931793806979
   139   3      20.844556702205765      15.473071035267546      16.219964225849708
   140   3      22.489981576431362      16.423057529333001      18.906931793806979
   141   1      20.844559680000003      15.473072754497855      21.882229340996481
   142   1      23.822353920000005      17.192303060553169      23.097908748829621
   143   2      19.355662560000006      12.894227295414877      20.058710229246774
   144   2      17.866765440000005      15.473072754497853      20.058710229246774
   145   2      17.866765440000005      13.753842448442537      22.490069044913049
   146   2      16.377868320000005      12.894227295414877      20.058710229246774
   147   3      22.489987532019846      14.523087979662703      21.210488664686572
   148   3      20.844562657794246       17.37304746185907      21.210488664686572
   149   3      20.844562657794246      15.473074473728159      23.897456232643844
   150   3      19.199137783568645      14.523087979662703      21.210488664686572
   151   3      22.176926067980162       18.14228783538832       23.76964942513953
   152   3      23.822350942205766      15.292328353191952       23.76964942513953
   153   3      23.822350942205766      17.192301341322864      21.082681857182259
   154   3      25.467775816431363       18.14228783538832       23.76964942513953
   155   1      23.822353920000005      17.192303060553169      26.744946972329032
   156   1      26.800148160000006      18.911533366608484      27.960626380162172
   157   2      22.333456800000008      14.613457601470193      24.921427860579325
   158   2      20.844559680000007      17.192303060553169      24.921427860579325
   159   2      20.844559680000007      15.473072754497853        27.3527866762456
   160   2      19.355662560000006      14.613457601470193      24.921427860579325
   161   3      25.467781772019848      16.242318285718017      26.073206296019123
   162   3      23.822356897794247      19.092277767914386      26.073206296019123
   163   3      23.822356897794247      17.192304779783473      28.760173863976394
   164   3      22.176932023568646      16.242318285718017      26.073206296019123
   165   3      25.154720307980163      19.861518141443636      28.632367056472081
   166   3      26.800145182205767      17.011558659247267      28.632367056472081
   167   3      26.800145182205767       18.91153164737818      25.945399488514809
   168   3      28.445570056431364      19.861518141443636      28.632367056472081
   169   1      11.911176960000002      13.753842448442535      2.4313588156662749
   170   1      14.888971200000002      15.473072754497851       3.647038223499413
   171   2      10.422279840000002      11.174996989359558     0.60783970391656827
   172   2      8.9333827200000009      13.753842448442533     0.60783970391656805
   173   2      8.9333827200000009      12.034612142387218      3.0391985195828433
   174   2      7.4444856000000019      11.174996989359558     0.60783970391656827
   175   3      13.556604812019842      12.803857673607384      1.7596181393563646
   176   3      11.911179937794241      15.653817155803752      1.7596181393563646
   177   3      11.911179937794241       13.75384416767284      4.4465857073136359
   178   3      10.265755063568642      12.803857673607384      1.7596181393563646
   179   3      13.243543347980161      16.423057529333001      4.3187788998093222
   180   3      14.888968222205762      13.573098047136632      4.3187788998093222
   181   3      14.888968222205762      15.473071035267546      1.6318113318520515
   182   3      16.534393096431362      16.423057529333001      4.3187788998093222
   183   1      14.888971200000002      15.473072754497851      7.2940764469988268
   184   1      17.866765440000002      17.192303060553169      8.5097558548319636
   185   2      13.400074080000001      12.894227295414876      5.4705573352491195
   186   2      11.911176960000002      15.473072754497851      5.4705573352491195
   187   2      11.911176960000002      13.753842448442535      7.9019161509153957
   188   2      10.422279840000002      12.894227295414876      5.4705573352491195
   189   3      16.534399052019843      14.523087979662701      6.6223357706889168
   190   3      14.888974177794243       17.37304746185907      6.6223357706889168
   191   3      14.888974177794243      15.473074473728158      9.3093033386461865
   192   3      13.243549303568642      14.523087979662701      6.6223357706889168
   193   3      16.221337587980159      18.142287835388316      9.1814965311418728
   194   3      17.866762462205763       15.29232835319195      9.1814965311418728
   195   3      17.866762462205763       17.19230134132286       6.494528963184603
   196   3       19.51218733643136      18.142287835388316      9.1814965311418728
   197   1      17.866765440000002      17.192303060553169      12.156794078331377
   198   1      20.844559680000003      18.911533366608484      13.372473486164516
   199   2      16.377868320000005      14.613457601470193      10.333274966581671
   200   2      14.888971200000004      17.192303060553169      10.333274966581671
   201   2      14.888971200000004      15.473072754497853      12.764633782247946
   202   2      13.400074080000003      14.613457601470193      10.333274966581671
   203   3      19.512193292019845      16.242318285718017      11.485053402021467
   204   3      17.866768417794244      19.092277767914386      11.485053402021467
   205   3      17.866768417794244      17.192304779783473      14.172020969978739
   206   3      16.221343543568643      16.242318285718017      11.485053402021467
   207   3       19.19913182798016      19.861518141443636      14.044214162474425
   208   3      20.844556702205765      17.011558659247267      14.044214162474425
   209   3      20.844556702205765       18.91153164737818      11.357246594517154
   210   3      22.489981576431362      19.861518141443636      14.044214162474425
   211   1      20.844559680000003      18.911533366608484      17.019511709663931
   212   1      23.822353920000005        20.6307636726638      18.235191117497067
   213   2      19.355662560000003      16.332687907525507      15.195992597914223
   214   2      17.866765440000002      18.911533366608484      15.195992597914223
   215   2      17.866765440000002      17.192303060553165      17.627351413580499
   216   2      16.377868320000001      16.332687907525507      15.195992597914223
   217   3      22.489987532019843      17.961548591773333      16.347771033354018
   218   3      20.844562657794242      20.811508073969701      16.347771033354018
   219   3      20.844562657794242      18.911535085838789      19.034738601311293
   220   3      19.199137783568645      17.961548591773333      16.347771033354018
   221   3      22.176926067980162      21.580748447498951      18.906931793806979
   222   3      23.822350942205762      18.730788965302583      18.906931793806979
   223   3      23.822350942205762      20.630761953433495      16.219964225849708
   224   3      25.467775816431363      21.580748447498951      18.906931793806979
   225   1      23.822353920000005      20.630763672663804      21.882229340996481
   226   1      26.800148160000003       22.34999397871912      23.097908748829621
   227   2              22.3334568      18.051918213580826      20.058710229246774
   228   2      20.844559680000003      20.630763672663804      20.058710229246774
   229   2      20.844559680000003      18.911533366608484      22.490069044913049
   230   2      19.355662560000003      18.051918213580826      20.058710229246774
   231   3      25.467781772019841      19.680778897828652      21.210488664686572
   232   3      23.822356897794243      22.530738380025021      21.210488664686572
   233   3      23.822356897794243      20.630765391894109      23.897456232643844
   234   3      22.176932023568643      19.680778897828652      21.210488664686572
   235   3      25.154720307980163      23.299978753554271       23.76964942513953
   236   3       26.80014518220576      20.450019271357903       23.76964942513953
   237   3       26.80014518220576      22.349992259488815      21.082681857182259
   238   3      28.445570056431364      23.299978753554271       23.76964942513953
   239   1      26.800148160000006       22.34999397871912      26.744946972329032
   240   1      29.777942400000004      24.069224284774435      27.960626380162172
   241   2      25.311251040000002      19.771148519636142      24.921427860579325
   242   2      23.822353920000005       22.34999397871912      24.921427860579325
   243   2      23.822353920000005        20.6307636726638        27.3527866762456
   244   2      22.333456800000004      19.771148519636142      24.921427860579325
   245   3      28.445576012019842      21.400009203883968      26.073206296019123
   246   3      26.800151137794245      24.249968686080337      26.073206296019123
   247   3      26.800151137794245      22.349995697949424      28.760173863976394
   248   3      25.154726263568644      21.400009203883968      26.073206296019123
   249   3      28.132514547980165      25.019209059609587      28.632367056472081
   250   3      29.777939422205762      22.169249577413218      28.632367056472081
   251   3      29.777939422205762      24.069222565544131      25.945399488514809
   252   3      31.423364296431366      25.019209059609587      28.632367056472081
   253   1      14.888971200000002      18.911533366608484      2.4313588156662744
   254   1      17.866765440000002        20.6307636726638      3.6470382234994125
   255   2      13.400074080000001      16.332687907525507     0.60783970391656794
   256   2      11.911176960000002      18.911533366608484     0.60783970391656783
   257   2      11.911176960000002      17.192303060553165      3.0391985195828433
   258   2      10.422279840000002      16.332687907525507     0.60783970391656794
   259   3      16.534399052019843      17.961548591773333      1.7596181393563644
   260   3      14.888974177794243      20.811508073969701      1.7596181393563641
   261   3      14.888974177794243      18.911535085838789      4.4465857073136359
   262   3      13.243549303568642      17.961548591773333      1.7596181393563644
   263   3      16.221337587980159      21.580748447498951      4.3187788998093222
   264   3      17.866762462205763      18.730788965302583      4.3187788998093222
   265   3      17.866762462205763      20.630761953433495      1.6318113318520511
   266   3       19.51218733643136      21.580748447498951      4.3187788998093222
   267   1      17.866765440000002        20.6307636726638      7.2940764469988268
   268   1      20.844559680000003      22.349993978719116      8.5097558548319636
   269   2      16.377868320000005      18.051918213580823      5.4705573352491195
   270   2      14.888971200000004        20.6307636726638      5.4705573352491195
   271   2      14.888971200000004      18.911533366608481      7.9019161509153957
   272   2      13.400074080000003      18.051918213580823      5.4705573352491195
   273   3      19.512193292019845      19.680778897828649      6.6223357706889168
   274   3      17.866768417794244      22.530738380025017      6.6223357706889159
   275   3      17.866768417794244      20.630765391894105      9.3093033386461865
   276   3      16.221343543568643      19.680778897828649      6.6223357706889168
   277   3       19.19913182798016      23.299978753554267      9.1814965311418728
   278   3      20.844556702205765      20.450019271357899      9.1814965311418728
   279   3      20.844556702205765      22.349992259488811      6.4945289631846022
   280   3      22.489981576431362      23.299978753554267      9.1814965311418728
   281   1      20.844559680000003       22.34999397871912      12.156794078331377
   282   1      23.822353920000005      24.069224284774435      13.372473486164516
   283   2      19.355662560000003      19.771148519636142      10.333274966581671
   284   2      17.866765440000002       22.34999397871912      10.333274966581671
   285   2      17.866765440000002        20.6307636726638      12.764633782247946
   286   2      16.377868320000001      19.771148519636142      10.333274966581671
   287   3      22.489987532019843      21.400009203883968      11.485053402021467
   288   3      20.844562657794242      24.249968686080337      11.485053402021467
   289   3      20.844562657794242      22.349995697949424      14.172020969978739
   290   3      19.199137783568645      21.400009203883968      11.485053402021467
   291   3      22.176926067980162      25.019209059609587      14.044214162474425
   292   3      23.822350942205762      22.169249577413218      14.044214162474425
   293   3      23.822350942205762      24.069222565544131      11.357246594517154
   294   3      25.467775816431363      25.019209059609587      14.044214162474425
   295   1      23.822353920000005      24.069224284774435      17.019511709663931
   296   1      26.800148160000003      25.788454590829751      18.235191117497067
   297   2              22.3334568      21.490378825691458      15.195992597914223
   298   2      20.844559680000003      24.069224284774435      15.195992597914223
   299   2      20.844559680000003      22.349993978719116      17.627351413580499
   300   2      19.355662560000003      21.490378825691458      15.195992597914223
   301   3      25.467781772019841      23.119239509939284      16.347771033354018
   302   3      23.822356897794243      25.969198992135652      16.347771033354018
   303   3      23.822356897794243       24.06922600400474      19.034738601311293
   304   3      22.176932023568643      23.119239509939284      16.347771033354018
   305   3      25.154720307980163      26.738439365664902      18.906931793806979
   306   3       26.80014518220576      23.888479883468534      18.906931793806979
   307   3       26.80014518220576      25.788452871599446      16.219964225849708
   308   3      28.445570056431364      26.738439365664902      18.906931793806979
   309   1      26.800148160000006      25.788454590829755      21.882229340996481
   310   1      29.777942400000004       27.50768489688507      23.097908748829621
   311   2      25.311251040000002      23.209609131746777      20.058710229246774
   312   2      23.822353920000005      25.788454590829755      20.058710229246774
   313   2      23.822353920000005      24.069224284774435      22.490069044913049
   314   2      22.333456800000004      23.209609131746777      20.058710229246774
   315   3      28.445576012019842      24.838469815994603      21.210488664686572
   316   3      26.800151137794245      27.688429298190972      21.210488664686572
   317   3      26.800151137794245      25.788456310060059      23.897456232643844
   318   3      25.154726263568644      24.838469815994603      21.210488664686572
   319   3      28.132514547980165      28.457669671720222       23.76964942513953
   320   3      29.777939422205762      25.607710189523853       23.76964942513953
   321   3      29.777939422205762      27.507683177654766      21.082681857182259
   322   3      31.423364296431366      28.457669671720222       23.76964942513953
   323   1      29.777942400000008       27.50768489688507      26.744946972329032
   324   1      32.755736640000009      29.226915202940386      27.960626380162168
   325   2      28.289045280000003      24.928839437802093      24.921427860579325
   326   2      26.800148160000006       27.50768489688507      24.921427860579325
   327   2      26.800148160000006      25.788454590829751        27.3527866762456
   328   2      25.311251040000005      24.928839437802093      24.921427860579325
   329   3      31.423370252019843      26.557700122049919      26.073206296019123
   330   3      29.777945377794246      29.407659604246287      26.073206296019119
   331   3      29.777945377794246      27.507686616115375      28.760173863976394
   332   3      28.132520503568646      26.557700122049919      26.073206296019123
   333   3      31.110308787980166      30.176899977775538      28.632367056472077
   334   3      32.755733662205763      27.326940495579169      28.632367056472081
   335   3      32.755733662205763      29.226913483710081      25.945399488514806
   336   3      34.401158536431367      30.176899977775538      28.632367056472077
   337   1      17.866765440000002      24.069224284774435      2.4313588156662744
   338   1      20.844559680000003      25.788454590829751      3.6470382234994121
   339   2      16.377868320000005      21.490378825691458     0.60783970391656761
   340   2      14.888971200000004      24.069224284774435      0.6078397039165675
   341   2      14.888971200000004      22.349993978719116      3.0391985195828428
   342   2      13.400074080000003      21.490378825691458     0.60783970391656761
   343   3      19.512193292019845      23.119239509939284      1.7596181393563641
   344   3      17.866768417794244      25.969198992135652      1.7596181393563639
   345   3      17.866768417794244       24.06922600400474       4.446585707313635
   346   3      16.221343543568643      23.119239509939284      1.7596181393563641
   347   3       19.19913182798016      26.738439365664902      4.3187788998093213
   348   3      20.844556702205765      23.888479883468534      4.3187788998093213
   349   3      20.844556702205765      25.788452871599446      1.6318113318520509
   350   3      22.489981576431362      26.738439365664902      4.3187788998093213
   351   1      20.844559680000003      25.788454590829751       7.294076446998826
   352   1      23.822353920000005      27.507684896885067      8.5097558548319636
   353   2      19.355662560000006      23.209609131746774      5.4705573352491186
   354   2      17.866765440000005      25.788454590829751      5.4705573352491186
   355   2      17.866765440000005      24.069224284774432      7.9019161509153948
   356   2      16.377868320000005      23.209609131746774      5.4705573352491186
   357   3      22.489987532019846        24.8384698159946      6.6223357706889159
   358   3      20.844562657794246      27.688429298190968      6.6223357706889159