(written by ASE)

7168 atoms
3 atom types

0.0      47.644707840000002  xlo xhi
0.0      41.261527345327607  ylo yhi
0.0      38.901741050660419  zlo zhi
     23.822353920000008      23.822353920000008       13.75384244844253  xy xz yz

Atoms # atomic

     1   1      5.9555884800000012      3.4384606121106338      2.4313588156662771
     2   1      8.9333827200000009      5.1576909181659509      3.6470382234994156
     3   2      4.4666913600000004     0.85961515302765834     0.60783970391656927
     4   2      2.9777942400000006      3.4384606121106338     0.60783970391656983
     5   2      2.9777942400000006      1.7192303060553169       3.039198519582845
     6   2      1.4888971200000003     0.85961515302765845     0.60783970391656927
     7   3      7.6010163320198405      2.4884758372754834      1.7596181393563664
     8   3      5.9555914577942408      5.3384353194718521      1.7596181393563668
     9   3      5.9555914577942408      3.4384623313409399      4.4465857073136386
    10   3      4.3101665835686402      2.4884758372754838      1.7596181393563664
    11   3      7.2879548679801607      6.1076756930011014      4.3187788998093257
    12   3      8.9333797422057604      3.2577162108047322      4.3187788998093248
    13   3      8.9333797422057604      5.1576891989356453      1.6318113318520537
    14   3      10.578804616431361      6.1076756930011005      4.3187788998093257
    15   1      8.9333827200000009      5.1576909181659518      7.2940764469988295
    16   1      11.911176960000002      6.8769212242212676      8.5097558548319689
    17   2       7.444485600000001      2.5788454590829755      5.4705573352491221
    18   2      5.9555884800000012      5.1576909181659509      5.4705573352491221
    19   2      5.9555884800000012      3.4384606121106338      7.9019161509153983
    20   2      4.4666913600000004      2.5788454590829759      5.4705573352491221
    21   3       10.57881057201984      4.2077061433308005      6.6223357706889194
    22   3      8.9333856977942414      7.0576656255271697      6.6223357706889203
    23   3      8.9333856977942414      5.1576926373962575      9.3093033386461919
    24   3      7.2879608235686408      4.2077061433308014      6.6223357706889194
    25   3      10.265749107980161      7.8269059990564189      9.1814965311418781
    26   3       11.91117398220576      4.9769465168600489      9.1814965311418781
    27   3       11.91117398220576      6.8769195049909619      6.4945289631846066
    28   3      13.556598856431361       7.826905999056418      9.1814965311418781
    29   1      11.911176960000002      6.8769212242212676      12.156794078331382
    30   1      14.888971200000002      8.5961515302765861      13.372473486164521
    31   2      10.422279840000002       4.298075765138293      10.333274966581676
    32   2      8.9333827200000009      6.8769212242212685      10.333274966581676
    33   2      8.9333827200000009      5.1576909181659518      12.764633782247952
    34   2      7.4444856000000019       4.298075765138293      10.333274966581676
    35   3      13.556604812019842      5.9269364493861181      11.485053402021473
    36   3      11.911179937794241      8.7768959315824873      11.485053402021473
    37   3      11.911179937794241      6.8769229434515742      14.172020969978744
    38   3      10.265755063568641       5.926936449386119      11.485053402021473
    39   3      13.243543347980161      9.5461363051117356      14.044214162474431
    40   3      14.888968222205762      6.6961768229153664      14.044214162474431
    41   3      14.888968222205762      8.5961498110462795      11.357246594517159
    42   3      16.534393096431362      9.5461363051117356      14.044214162474431
    43   1      14.888971200000002      8.5961515302765861      17.019511709663938
    44   1      17.866765440000002      10.315381836331902      18.235191117497074
    45   2      13.400074080000001      6.0173060711936097      15.195992597914229
    46   2      11.911176960000002      8.5961515302765861      15.195992597914229
    47   2      11.911176960000002      6.8769212242212676      17.627351413580502
    48   2      10.422279840000002      6.0173060711936106      15.195992597914229
    49   3      16.534399052019843      7.6461667554414348      16.347771033354022
    50   3      14.888974177794243      10.496126237637803      16.347771033354025
    51   3      14.888974177794243      8.5961532495068926        19.0347386013113
    52   3      13.243549303568642      7.6461667554414348      16.347771033354022
    53   3      16.221337587980162      11.265366611167053      18.906931793806987
    54   3      17.866762462205763      8.4154071289706849      18.906931793806987
    55   3      17.866762462205763      10.315380117101597      16.219964225849715
    56   3       19.51218733643136      11.265366611167053      18.906931793806987
    57   1      17.866765440000002      10.315381836331904      21.882229340996489
    58   1      20.844559680000003      12.034612142387221      23.097908748829628
    59   2      16.377868320000005      7.7365363772489273      20.058710229246778
    60   2      14.888971200000004      10.315381836331904      20.058710229246781
    61   2      14.888971200000004      8.5961515302765861      22.490069044913056
    62   2      13.400074080000003      7.7365363772489273      20.058710229246778
    63   3      19.512193292019845      9.3653970614967541      21.210488664686579
    64   3      17.866768417794244      12.215356543693122      21.210488664686579
    65   3      17.866768417794244       10.31538355556221      23.897456232643851
    66   3      16.221343543568643      9.3653970614967541      21.210488664686579
    67   3      19.199131827980164      12.984596917222371      23.769649425139537
    68   3      20.844556702205765      10.134637435026002      23.769649425139537
    69   3      20.844556702205765      12.034610423156915      21.082681857182266
    70   3      22.489981576431362      12.984596917222369      23.769649425139537
    71   1      20.844559680000003      12.034612142387221      26.744946972329039
    72   1      23.822353920000005      13.753842448442535      27.960626380162179
    73   2      19.355662560000006       9.455766683304244      24.921427860579332
    74   2      17.866765440000005      12.034612142387219      24.921427860579332
    75   2      17.866765440000005      10.315381836331904      27.352786676245607
    76   2      16.377868320000005       9.455766683304244      24.921427860579332
    77   3      22.489987532019846      11.084627367552068       26.07320629601913
    78   3      20.844562657794246      13.934586849748438       26.07320629601913
    79   3      20.844562657794246      12.034613861617526      28.760173863976402
    80   3      19.199137783568645       11.08462736755207       26.07320629601913
    81   3      22.176926067980165      14.703827223277687      28.632367056472088
    82   3      23.822350942205766      11.853867741081316      28.632367056472088
    83   3      23.822350942205766       13.75384072921223      25.945399488514816
    84   3      25.467775816431363      14.703827223277687      28.632367056472088
    85   1      23.822353920000005      13.753842448442535      31.607664603661593
    86   1      26.800148160000003      15.473072754497853      32.823344011494726
    87   2              22.3334568       11.17499698935956      29.784145491911886
    88   2      20.844559680000003      13.753842448442537      29.784145491911886
    89   2      20.844559680000003      12.034612142387221      32.215504307578158
    90   2      19.355662560000003      11.174996989359562      29.784145491911886
    91   3      25.467781772019841      12.803857673607386      30.935923927351684
    92   3      23.822356897794243      15.653817155803754      30.935923927351684
    93   3      23.822356897794243      13.753844167672842      33.622891495308949
    94   3      22.176932023568643      12.803857673607386      30.935923927351684
    95   3      25.154720307980163      16.423057529333004      33.495084687804642
    96   3       26.80014518220576      13.573098047136634      33.495084687804635
    97   3       26.80014518220576      15.473071035267546       30.80811711984737
    98   3      28.445570056431364      16.423057529333004      33.495084687804642
    99   1      26.800148160000006      15.473072754497855      36.470382234994148
   100   1      29.777942400000004      17.192303060553172      37.686061642827291
   101   2      25.311251040000002      12.894227295414877      34.646863123244437
   102   2      23.822353920000005      15.473072754497853      34.646863123244437
   103   2      23.822353920000005      13.753842448442537      37.078221938910715
   104   2      22.333456800000004      12.894227295414877      34.646863123244437
   105   3      28.445576012019842      14.523087979662703      35.798641558684231
   106   3      26.800151137794245      17.373047461859073      35.798641558684238
   107   3      26.800151137794245      15.473074473728159      38.485609126641506
   108   3      25.154726263568644      14.523087979662703      35.798641558684231
   109   3      28.132514547980165      18.142287835388323        38.3578023191372
   110   3      29.777939422205762      15.292328353191952      38.357802319137193
   111   3      29.777939422205762      17.192301341322867      35.670834751179932
   112   3      31.423364296431366      18.142287835388323        38.3578023191372
   113   1      8.9333827200000009      8.5961515302765861       2.431358815666278
   114   1      11.911176960000002      10.315381836331902      3.6470382234994165
   115   2       7.444485600000001      6.0173060711936097     0.60783970391657038
   116   2      5.9555884800000012      8.5961515302765843     0.60783970391657105
   117   2      5.9555884800000012      6.8769212242212685      3.0391985195828464
   118   2      4.4666913600000004      6.0173060711936097     0.60783970391657038
   119   3       10.57881057201984      7.6461667554414339      1.7596181393563675
   120   3      8.9333856977942414      10.496126237637803      1.7596181393563681
   121   3      8.9333856977942414      8.5961532495068909      4.4465857073136394
   122   3      7.2879608235686408      7.6461667554414348      1.7596181393563675
   123   3      10.265749107980161      11.265366611167053      4.3187788998093266
   124   3       11.91117398220576      8.4154071289706831      4.3187788998093257
   125   3       11.91117398220576      10.315380117101597      1.6318113318520551
   126   3      13.556598856431361      11.265366611167053      4.3187788998093266
   127   1      11.911176960000002      10.315381836331902      7.2940764469988313
   128   1      14.888971200000002      12.034612142387219      8.5097558548319707
   129   2      10.422279840000002      7.7365363772489273       5.470557335249123
   130   2      8.9333827200000009      10.315381836331902      5.4705573352491239
   131   2      8.9333827200000009      8.5961515302765861      7.9019161509153992
   132   2      7.4444856000000019      7.7365363772489273       5.470557335249123
   133   3      13.556604812019842      9.3653970614967523      6.6223357706889203
   134   3      11.911179937794241      12.215356543693121      6.6223357706889212
   135   3      11.911179937794241      10.315383555562208      9.3093033386461919
   136   3      10.265755063568641      9.3653970614967523      6.6223357706889203
   137   3      13.243543347980161      12.984596917222369      9.1814965311418799
   138   3      14.888968222205762      10.134637435026001      9.1814965311418781
   139   3      14.888968222205762      12.034610423156913      6.4945289631846075
   140   3      16.534393096431362      12.984596917222369      9.1814965311418799
   141   1      14.888971200000002      12.034612142387221      12.156794078331384
   142   1      17.866765440000002      13.753842448442537      13.372473486164523
   143   2      13.400074080000001       9.455766683304244      10.333274966581676
   144   2      11.911176960000002      12.034612142387219      10.333274966581678
   145   2      11.911176960000002      10.315381836331904      12.764633782247952
   146   2      10.422279840000002       9.455766683304244      10.333274966581676
   147   3      16.534399052019843       11.08462736755207      11.485053402021473
   148   3      14.888974177794243      13.934586849748438      11.485053402021475
   149   3      14.888974177794243      12.034613861617526      14.172020969978746
   150   3      13.243549303568642       11.08462736755207      11.485053402021473
   151   3      16.221337587980162      14.703827223277688      14.044214162474432
   152   3      17.866762462205763      11.853867741081318      14.044214162474432
   153   3      17.866762462205763      13.753840729212232      11.357246594517161
   154   3       19.51218733643136      14.703827223277688      14.044214162474432
   155   1      17.866765440000002      13.753842448442537      17.019511709663938
   156   1      20.844559680000003      15.473072754497855      18.235191117497074
   157   2      16.377868320000005      11.174996989359562      15.195992597914229
   158   2      14.888971200000004      13.753842448442537      15.195992597914231
   159   2      14.888971200000004      12.034612142387221      17.627351413580506
   160   2      13.400074080000003      11.174996989359562      15.195992597914229
   161   3      19.512193292019845      12.803857673607387      16.347771033354025
   162   3      17.866768417794244      15.653817155803756      16.347771033354025
   163   3      17.866768417794244      13.753844167672844        19.0347386013113
   164   3      16.221343543568643      12.803857673607387      16.347771033354025
   165   3      19.199131827980164      16.423057529333004      18.906931793806987
   166   3      20.844556702205765      13.573098047136636      18.906931793806987
   167   3      20.844556702205765      15.473071035267548      16.219964225849715
   168   3      22.489981576431362      16.423057529333004      18.906931793806987
   169   1      20.844559680000003      15.473072754497856      21.882229340996489
   170   1      23.822353920000005      17.192303060553172      23.097908748829628
   171   2      19.355662560000006      12.894227295414879      20.058710229246781
   172   2      17.866765440000005      15.473072754497855      20.058710229246781
   173   2      17.866765440000005      13.753842448442539      22.490069044913056
   174   2      16.377868320000005      12.894227295414879      20.058710229246781
   175   3      22.489987532019846      14.523087979662703      21.210488664686579
   176   3      20.844562657794246      17.373047461859073      21.210488664686579
   177   3      20.844562657794246      15.473074473728161      23.897456232643851
   178   3      19.199137783568645      14.523087979662705      21.210488664686579
   179   3      22.176926067980165      18.142287835388323      23.769649425139537
   180   3      23.822350942205766      15.292328353191952      23.769649425139537
   181   3      23.822350942205766      17.192301341322867      21.082681857182266
   182   3      25.467775816431363      18.142287835388323      23.769649425139537
   183   1      23.822353920000005      17.192303060553172      26.744946972329039
   184   1      26.800148160000003      18.911533366608488      27.960626380162179
   185   2              22.3334568      14.613457601470193      24.921427860579332
   186   2      20.844559680000003      17.192303060553172      24.921427860579332
   187   2      20.844559680000003      15.473072754497855      27.352786676245607
   188   2      19.355662560000003      14.613457601470195      24.921427860579332
   189   3      25.467781772019841      16.242318285718021       26.07320629601913
   190   3      23.822356897794243      19.092277767914389       26.07320629601913
   191   3      23.822356897794243      17.192304779783477      28.760173863976402
   192   3      22.176932023568643      16.242318285718021       26.07320629601913
   193   3      25.154720307980163      19.861518141443639      28.632367056472088
   194   3       26.80014518220576      17.011558659247271      28.632367056472088
   195   3       26.80014518220576      18.911531647378183      25.945399488514816
   196   3      28.445570056431364      19.861518141443639      28.632367056472088
   197   1      26.800148160000006      18.911533366608488      31.607664603661593
   198   1      29.777942400000004      20.630763672663804      32.823344011494733
   199   2      25.311251040000002      16.332687907525514      29.784145491911886
   200   2      23.822353920000005      18.911533366608488      29.784145491911886
   201   2      23.822353920000005      17.192303060553172      32.215504307578165
   202   2      22.333456800000004      16.332687907525514      29.784145491911886
   203   3      28.445576012019842      17.961548591773337      30.935923927351684
   204   3      26.800151137794245      20.811508073969705      30.935923927351684
   205   3      26.800151137794245      18.911535085838796      33.622891495308956
   206   3      25.154726263568644      17.961548591773337      30.935923927351684
   207   3      28.132514547980165      21.580748447498955      33.495084687804642
   208   3      29.777939422205762      18.730788965302587      33.495084687804642
   209   3      29.777939422205762      20.630761953433499       30.80811711984737
   210   3      31.423364296431366      21.580748447498955      33.495084687804642
   211   1      29.777942400000008      20.630763672663807      36.470382234994155
   212   1      32.755736640000009      22.349993978719123      37.686061642827291
   213   2      28.289045280000003       18.05191821358083      34.646863123244444
   214   2      26.800148160000006      20.630763672663807      34.646863123244444
   215   2      26.800148160000006      18.911533366608488      37.078221938910723
   216   2      25.311251040000005       18.05191821358083      34.646863123244444
   217   3      31.423370252019843      19.680778897828656      35.798641558684238
   218   3      29.777945377794246      22.530738380025024      35.798641558684238
   219   3      29.777945377794246      20.630765391894112      38.485609126641513
   220   3      28.132520503568646      19.680778897828656      35.798641558684238
   221   3      31.110308787980166      23.299978753554274        38.3578023191372
   222   3      32.755733662205763      20.450019271357906        38.3578023191372
   223   3      32.755733662205763      22.349992259488818      35.670834751179932
   224   3      34.401158536431367      23.299978753554274        38.3578023191372
   225   1      11.911176960000002      13.753842448442537      2.4313588156662793
   226   1      14.888971200000002      15.473072754497853      3.6470382234994179
   227   2      10.422279840000002       11.17499698935956     0.60783970391657161
   228   2      8.9333827200000009      13.753842448442535     0.60783970391657216
   229   2      8.9333827200000009      12.034612142387219      3.0391985195828473
   230   2      7.4444856000000019       11.17499698935956     0.60783970391657161
   231   3      13.556604812019842      12.803857673607386      1.7596181393563686
   232   3      11.911179937794241      15.653817155803754      1.7596181393563692
   233   3      11.911179937794241      13.753844167672842      4.4465857073136412
   234   3      10.265755063568641      12.803857673607386      1.7596181393563686
   235   3      13.243543347980161      16.423057529333004      4.3187788998093275
   236   3      14.888968222205762      13.573098047136634      4.3187788998093266
   237   3      14.888968222205762      15.473071035267548      1.6318113318520562
   238   3      16.534393096431362      16.423057529333004      4.3187788998093275
   239   1      14.888971200000002      15.473072754497853      7.2940764469988322
   240   1      17.866765440000002      17.192303060553172      8.5097558548319707
   241   2      13.400074080000001      12.894227295414877      5.4705573352491239
   242   2      11.911176960000002      15.473072754497853      5.4705573352491248
   243   2      11.911176960000002      13.753842448442537       7.901916150915401
   244   2      10.422279840000002      12.894227295414877      5.4705573352491239
   245   3      16.534399052019843      14.523087979662703      6.6223357706889221
   246   3      14.888974177794243      17.373047461859073      6.6223357706889221
   247   3      14.888974177794243      15.473074473728159      9.3093033386461936
   248   3      13.243549303568642      14.523087979662703      6.6223357706889221
   249   3      16.221337587980162       18.14228783538832      9.1814965311418799
   250   3      17.866762462205763      15.292328353191952      9.1814965311418799
   251   3      17.866762462205763      17.192301341322864      6.4945289631846084
   252   3       19.51218733643136       18.14228783538832      9.1814965311418799
   253   1      17.866765440000002      17.192303060553172      12.156794078331384
   254   1      20.844559680000003      18.911533366608488      13.372473486164523
   255   2      16.377868320000005      14.613457601470195      10.333274966581678
   256   2      14.888971200000004      17.192303060553172      10.333274966581678
   257   2      14.888971200000004      15.473072754497855      12.764633782247953
   258   2      13.400074080000003      14.613457601470195      10.333274966581678
   259   3      19.512193292019845      16.242318285718021      11.485053402021475
   260   3      17.866768417794244      19.092277767914389      11.485053402021475
   261   3      17.866768417794244      17.192304779783477      14.172020969978746
   262   3      16.221343543568643      16.242318285718021      11.485053402021475
   263   3      19.199131827980164      19.861518141443639      14.044214162474434
   264   3      20.844556702205765      17.011558659247271      14.044214162474432
   265   3      20.844556702205765      18.911531647378183      11.357246594517161
   266   3      22.489981576431362      19.861518141443639      14.044214162474434
   267   1      20.844559680000003      18.911533366608488      17.019511709663938
   268   1      23.822353920000005      20.630763672663804      18.235191117497074
   269   2      19.355662560000006      16.332687907525514      15.195992597914231
   270   2      17.866765440000005      18.911533366608488      15.195992597914231
   271   2      17.866765440000005      17.192303060553172      17.627351413580506
   272   2      16.377868320000005      16.332687907525514      15.195992597914231
   273   3      22.489987532019846      17.961548591773337      16.347771033354025
   274   3      20.844562657794246      20.811508073969705      16.347771033354025
   275   3      20.844562657794246      18.911535085838796        19.0347386013113
   276   3      19.199137783568645      17.961548591773337      16.347771033354025
   277   3      22.176926067980165      21.580748447498955      18.906931793806987
   278   3      23.822350942205766      18.730788965302587      18.906931793806987
   279   3      23.822350942205766      20.630761953433499      16.219964225849715
   280   3      25.467775816431363      21.580748447498955      18.906931793806987
   281   1      23.822353920000005      20.630763672663807      21.882229340996489
   282   1      26.800148160000003      22.349993978719123      23.097908748829628
   283   2              22.3334568       18.05191821358083      20.058710229246781
   284   2      20.844559680000003      20.630763672663807      20.058710229246781
   285   2      20.844559680000003      18.911533366608488      22.490069044913056
   286   2      19.355662560000003       18.05191821358083      20.058710229246781
   287   3      25.467781772019841      19.680778897828656      21.210488664686579
   288   3      23.822356897794243      22.530738380025024      21.210488664686579
   289   3      23.822356897794243      20.630765391894112      23.897456232643851
   290   3      22.176932023568643      19.680778897828656      21.210488664686579
   291   3      25.154720307980163      23.299978753554274      23.769649425139537
   292   3       26.80014518220576      20.450019271357906      23.769649425139537
   293   3       26.80014518220576      22.349992259488818      21.082681857182266
   294   3      28.445570056431364      23.299978753554274      23.769649425139537
   295   1      26.800148160000006      22.349993978719123      26.744946972329039
   296   1      29.777942400000004      24.069224284774439      27.960626380162182
   297   2      25.311251040000002      19.771148519636146      24.921427860579332
   298   2      23.822353920000005      22.349993978719123      24.921427860579332
   299   2      23.822353920000005      20.630763672663804      27.352786676245607
   300   2      22.333456800000004      19.771148519636146      24.921427860579332
   301   3      28.445576012019842      21.400009203883972       26.07320629601913
   302   3      26.800151137794245       24.24996868608034      26.073206296019134
   303   3      26.800151137794245      22.349995697949428      28.760173863976402
   304   3      25.154726263568644      21.400009203883972       26.07320629601913
   305   3      28.132514547980165       25.01920905960959      28.632367056472091
   306   3      29.777939422205762      22.169249577413222      28.632367056472088
   307   3      29.777939422205762      24.069222565544134       25.94539948851482
   308   3      31.423364296431366       25.01920905960959      28.632367056472091
   309   1      29.777942400000008      24.069224284774442      31.607664603661597
   310   1      32.755736640000009      25.788454590829758      32.823344011494733
   311   2      28.289045280000003      21.490378825691465      29.784145491911886
   312   2      26.800148160000006      24.069224284774442       29.78414549191189
   313   2      26.800148160000006      22.349993978719123      32.215504307578165
   314   2      25.311251040000005      21.490378825691465      29.784145491911886
   315   3      31.423370252019843      23.119239509939291      30.935923927351684
   316   3      29.777945377794246      25.969198992135659      30.935923927351688
   317   3      29.777945377794246      24.069226004004747      33.622891495308956
   318   3      28.132520503568646      23.119239509939291      30.935923927351684
   319   3      31.110308787980166       26.73843936566491      33.495084687804642
   320   3      32.755733662205763      23.888479883468541      33.495084687804642
   321   3      32.755733662205763      25.788452871599453      30.808117119847374
   322   3      34.401158536431367       26.73843936566491      33.495084687804642
   323   1      32.755736640000009      25.788454590829758      36.470382234994155
   324   1      35.733530880000004      27.507684896885074      37.686061642827291
   325   2      31.266839520000005      23.209609131746781      34.646863123244444
   326   2      29.777942400000008      25.788454590829758      34.646863123244444
   327   2      29.777942400000008      24.069224284774439      37.078221938910723
   328   2      28.289045280000007      23.209609131746781      34.646863123244444
   329   3      34.401164492019845      24.838469815994607      35.798641558684238
   330   3      32.755739617794248      27.688429298190975      35.798641558684238
   331   3      32.755739617794248      25.788456310060063      38.485609126641513
   332   3      31.110314743568647      24.838469815994607      35.798641558684238
   333   3      34.088103027980168      28.457669671720225        38.3578023191372
   334   3      35.733527902205765      25.607710189523857        38.3578023191372
   335   3      35.733527902205765      27.507683177654769      35.670834751179932
   336   3      37.378952776431369      28.457669671720225        38.3578023191372
   337   1      14.888971200000002      18.911533366608488      2.4313588156662806
   338   1      17.866765440000002      20.630763672663804      3.6470382234994192
   339   2      13.400074080000001      16.332687907525511     0.60783970391657283
   340   2      11.911176960000002      18.911533366608488     0.60783970391657338
   341   2      11.911176960000002      17.192303060553169      3.0391985195828486
   342   2      10.422279840000002      16.332687907525511     0.60783970391657283
   343   3      16.534399052019843      17.961548591773337      1.7596181393563697
   344   3      14.888974177794243      20.811508073969705      1.7596181393563703
   345   3      14.888974177794243      18.911535085838793      4.4465857073136421
   346   3      13.243549303568642      17.961548591773337      1.7596181393563697
   347   3      16.221337587980162      21.580748447498955      4.3187788998093293
   348   3      17.866762462205763      18.730788965302587      4.3187788998093284
   349   3      17.866762462205763      20.630761953433499      1.6318113318520573
   350   3       19.51218733643136      21.580748447498955      4.3187788998093293
   351   1      17.866765440000002      20.630763672663804      7.2940764469988331
   352   1      20.844559680000003       22.34999397871912      8.5097558548319725
   353   2      16.377868320000005      18.051918213580826      5.4705573352491257
   354   2      14.888971200000004      20.630763672663804      5.4705573352491257
   355   2      14.888971200000004      18.911533366608484      7.9019161509154019
   356   2      13.400074080000003      18.051918213580826      5.4705573352491257
   357   3      19.512193292019845      19.680778897828652       6.622335770688923
   358   3      17.866768417794244      22.530738380025021      6.6223357706889239