(written by ASE)

896 atoms
3 atom types

0.0      23.822353920000001  xlo xhi
0.0      20.630763672663804  ylo yhi
0.0       19.45087052533021  zlo zhi
     11.911176960000004      11.911176960000004      6.8769212242212649  xy xz yz

Atoms # atomic

     1   1      5.9555884800000012      3.4384606121106343      2.4313588156662771
     2   1      8.9333827200000009      5.1576909181659509      3.6470382234994156
     3   2      4.4666913600000004     0.85961515302765856     0.60783970391656927
     4   2      2.9777942400000006      3.4384606121106338     0.60783970391656983
     5   2      2.9777942400000006      1.7192303060553171       3.039198519582845
     6   2      1.4888971200000003     0.85961515302765856     0.60783970391656927
     7   3      7.6010163320198405      2.4884758372754838      1.7596181393563664
     8   3      5.9555914577942408      5.3384353194718521      1.7596181393563668
     9   3      5.9555914577942408      3.4384623313409404      4.4465857073136386
    10   3      4.3101665835686411      2.4884758372754838      1.7596181393563664
    11   3      7.2879548679801598      6.1076756930011014      4.3187788998093257
    12   3      8.9333797422057604      3.2577162108047326      4.3187788998093248
    13   3      8.9333797422057604      5.1576891989356453      1.6318113318520537
    14   3      10.578804616431361      6.1076756930011014      4.3187788998093257
    15   1      8.9333827200000009      5.1576909181659518      7.2940764469988295
    16   1      11.911176960000002      6.8769212242212685      8.5097558548319689
    17   2       7.444485600000001      2.5788454590829759      5.4705573352491221
    18   2      5.9555884800000012      5.1576909181659509      5.4705573352491221
    19   2      5.9555884800000012      3.4384606121106343      7.9019161509153983
    20   2      4.4666913600000004      2.5788454590829759      5.4705573352491221
    21   3       10.57881057201984      4.2077061433308014      6.6223357706889194
    22   3      8.9333856977942414      7.0576656255271697      6.6223357706889203
    23   3      8.9333856977942414      5.1576926373962575      9.3093033386461919
    24   3      7.2879608235686417      4.2077061433308014      6.6223357706889194
    25   3      10.265749107980159      7.8269059990564189      9.1814965311418781
    26   3       11.91117398220576      4.9769465168600497      9.1814965311418781
    27   3       11.91117398220576      6.8769195049909628      6.4945289631846066
    28   3      13.556598856431361      7.8269059990564189      9.1814965311418781
    29   1      11.911176960000002      6.8769212242212685      12.156794078331382
    30   1      14.888971200000002      8.5961515302765861      13.372473486164521
    31   2      10.422279840000002       4.298075765138293      10.333274966581676
    32   2      8.9333827200000009      6.8769212242212685      10.333274966581676
    33   2      8.9333827200000009      5.1576909181659518      12.764633782247952
    34   2      7.4444856000000019       4.298075765138293      10.333274966581676
    35   3      13.556604812019842       5.926936449386119      11.485053402021473
    36   3      11.911179937794241      8.7768959315824873      11.485053402021473
    37   3      11.911179937794241      6.8769229434515751      14.172020969978744
    38   3      10.265755063568642       5.926936449386119      11.485053402021473
    39   3      13.243543347980161      9.5461363051117356      14.044214162474431
    40   3      14.888968222205762      6.6961768229153673      14.044214162474431
    41   3      14.888968222205762      8.5961498110462795      11.357246594517159
    42   3      16.534393096431362      9.5461363051117356      14.044214162474431
    43   1      14.888971200000002      8.5961515302765861      17.019511709663938
    44   1      17.866765440000002      10.315381836331902      18.235191117497074
    45   2      13.400074080000001      6.0173060711936106      15.195992597914229
    46   2      11.911176960000002      8.5961515302765861      15.195992597914229
    47   2      11.911176960000002      6.8769212242212685      17.627351413580502
    48   2      10.422279840000002      6.0173060711936106      15.195992597914229
    49   3      16.534399052019843      7.6461667554414356      16.347771033354022
    50   3      14.888974177794243      10.496126237637803      16.347771033354025
    51   3      14.888974177794243      8.5961532495068926        19.0347386013113
    52   3      13.243549303568642      7.6461667554414356      16.347771033354022
    53   3      16.221337587980159      11.265366611167053      18.906931793806987
    54   3      17.866762462205763      8.4154071289706849      18.906931793806987
    55   3      17.866762462205763      10.315380117101597      16.219964225849715
    56   3       19.51218733643136      11.265366611167053      18.906931793806987
    57   1      8.9333827200000009      8.5961515302765861       2.431358815666278
    58   1      11.911176960000002      10.315381836331902      3.6470382234994165
    59   2       7.444485600000001      6.0173060711936097     0.60783970391657038
    60   2      5.9555884800000012      8.5961515302765843     0.60783970391657105
    61   2      5.9555884800000012      6.8769212242212685      3.0391985195828464
    62   2      4.4666913600000004      6.0173060711936097     0.60783970391657038
    63   3       10.57881057201984      7.6461667554414348      1.7596181393563675
    64   3      8.9333856977942414      10.496126237637803      1.7596181393563681
    65   3      8.9333856977942414      8.5961532495068909      4.4465857073136394
    66   3      7.2879608235686417      7.6461667554414348      1.7596181393563675
    67   3      10.265749107980159      11.265366611167053      4.3187788998093266
    68   3       11.91117398220576      8.4154071289706831      4.3187788998093257
    69   3       11.91117398220576      10.315380117101597      1.6318113318520551
    70   3      13.556598856431361      11.265366611167053      4.3187788998093266
    71   1      11.911176960000002      10.315381836331902      7.2940764469988313
    72   1      14.888971200000002      12.034612142387219      8.5097558548319707
    73   2      10.422279840000002      7.7365363772489273       5.470557335249123
    74   2      8.9333827200000009      10.315381836331902      5.4705573352491239
    75   2      8.9333827200000009      8.5961515302765861      7.9019161509153992
    76   2      7.4444856000000019      7.7365363772489273       5.470557335249123
    77   3      13.556604812019842      9.3653970614967523      6.6223357706889203
    78   3      11.911179937794241      12.215356543693121      6.6223357706889212
    79   3      11.911179937794241      10.315383555562208      9.3093033386461919
    80   3      10.265755063568642      9.3653970614967523      6.6223357706889203
    81   3      13.243543347980161      12.984596917222369      9.1814965311418799
    82   3      14.888968222205762      10.134637435026001      9.1814965311418781
    83   3      14.888968222205762      12.034610423156913      6.4945289631846075
    84   3      16.534393096431362      12.984596917222369      9.1814965311418799
    85   1      14.888971200000002      12.034612142387221      12.156794078331384
    86   1      17.866765440000002      13.753842448442537      13.372473486164523
    87   2      13.400074080000001       9.455766683304244      10.333274966581676
    88   2      11.911176960000002      12.034612142387219      10.333274966581678
    89   2      11.911176960000002      10.315381836331904      12.764633782247952
    90   2      10.422279840000002       9.455766683304244      10.333274966581676
    91   3      16.534399052019843       11.08462736755207      11.485053402021473
    92   3      14.888974177794243      13.934586849748438      11.485053402021475
    93   3      14.888974177794243      12.034613861617526      14.172020969978746
    94   3      13.243549303568642       11.08462736755207      11.485053402021473
    95   3      16.221337587980159      14.703827223277688      14.044214162474432
    96   3      17.866762462205763      11.853867741081318      14.044214162474432
    97   3      17.866762462205763      13.753840729212232      11.357246594517161
    98   3       19.51218733643136      14.703827223277688      14.044214162474432
    99   1      17.866765440000002      13.753842448442537      17.019511709663938
   100   1      20.844559680000003      15.473072754497853      18.235191117497074
   101   2      16.377868320000005       11.17499698935956      15.195992597914229
   102   2      14.888971200000004      13.753842448442535      15.195992597914231
   103   2      14.888971200000004      12.034612142387219      17.627351413580506
   104   2      13.400074080000003       11.17499698935956      15.195992597914229
   105   3      19.512193292019845      12.803857673607386      16.347771033354025
   106   3      17.866768417794244      15.653817155803754      16.347771033354025
   107   3      17.866768417794244      13.753844167672842        19.0347386013113
   108   3      16.221343543568643      12.803857673607386      16.347771033354025
   109   3       19.19913182798016      16.423057529333004      18.906931793806987
   110   3      20.844556702205765      13.573098047136634      18.906931793806987
   111   3      20.844556702205765      15.473071035267548      16.219964225849715
   112   3      22.489981576431362      16.423057529333004      18.906931793806987
   113   1      11.911176960000002      13.753842448442537      2.4313588156662793
   114   1      14.888971200000002      15.473072754497853      3.6470382234994179
   115   2      10.422279840000002       11.17499698935956     0.60783970391657161
   116   2      8.9333827200000009      13.753842448442535     0.60783970391657216
   117   2      8.9333827200000009      12.034612142387219      3.0391985195828473
   118   2      7.4444856000000019       11.17499698935956     0.60783970391657161
   119   3      13.556604812019842      12.803857673607386      1.7596181393563686
   120   3      11.911179937794241      15.653817155803754      1.7596181393563692
   121   3      11.911179937794241      13.753844167672842      4.4465857073136412
   122   3      10.265755063568642      12.803857673607386      1.7596181393563686
   123   3      13.243543347980161      16.423057529333004      4.3187788998093275
   124   3      14.888968222205762      13.573098047136634      4.3187788998093266
   125   3      14.888968222205762      15.473071035267548      1.6318113318520562
   126   3      16.534393096431362      16.423057529333004      4.3187788998093275
   127   1      14.888971200000002      15.473072754497853      7.2940764469988322
   128   1      17.866765440000002      17.192303060553172      8.5097558548319707
   129   2      13.400074080000001      12.894227295414877      5.4705573352491239
   130   2      11.911176960000002      15.473072754497853      5.4705573352491248
   131   2      11.911176960000002      13.753842448442537       7.901916150915401
   132   2      10.422279840000002      12.894227295414877      5.4705573352491239
   133   3      16.534399052019843      14.523087979662703      6.6223357706889221
   134   3      14.888974177794243      17.373047461859073      6.6223357706889221
   135   3      14.888974177794243      15.473074473728159      9.3093033386461936
   136   3      13.243549303568642      14.523087979662703      6.6223357706889221
   137   3      16.221337587980159       18.14228783538832      9.1814965311418799
   138   3      17.866762462205763      15.292328353191952      9.1814965311418799
   139   3      17.866762462205763      17.192301341322864      6.4945289631846084
   140   3       19.51218733643136       18.14228783538832      9.1814965311418799
   141   1      17.866765440000002      17.192303060553172      12.156794078331384
   142   1      20.844559680000003      18.911533366608488      13.372473486164523
   143   2      16.377868320000005      14.613457601470195      10.333274966581678
   144   2      14.888971200000004      17.192303060553172      10.333274966581678
   145   2      14.888971200000004      15.473072754497855      12.764633782247953
   146   2      13.400074080000003      14.613457601470195      10.333274966581678
   147   3      19.512193292019845      16.242318285718021      11.485053402021475
   148   3      17.866768417794244      19.092277767914389      11.485053402021475
   149   3      17.866768417794244      17.192304779783477      14.172020969978746
   150   3      16.221343543568643      16.242318285718021      11.485053402021475
   151   3       19.19913182798016      19.861518141443639      14.044214162474434
   152   3      20.844556702205765      17.011558659247271      14.044214162474432
   153   3      20.844556702205765      18.911531647378183      11.357246594517161
   154   3      22.489981576431362      19.861518141443639      14.044214162474434
   155   1      20.844559680000003      18.911533366608488      17.019511709663938
   156   1      23.822353920000005      20.630763672663804      18.235191117497074
   157   2      19.355662560000003      16.332687907525511      15.195992597914231
   158   2      17.866765440000002      18.911533366608488      15.195992597914231
   159   2      17.866765440000002      17.192303060553169      17.627351413580506
   160   2      16.377868320000001      16.332687907525511      15.195992597914231
   161   3      22.489987532019843      17.961548591773337      16.347771033354025
   162   3      20.844562657794242      20.811508073969705      16.347771033354025
   163   3      20.844562657794242      18.911535085838793        19.0347386013113
   164   3      19.199137783568645      17.961548591773337      16.347771033354025
   165   3      22.176926067980162      21.580748447498955      18.906931793806987
   166   3      23.822350942205762      18.730788965302587      18.906931793806987
   167   3      23.822350942205762      20.630761953433499      16.219964225849715
   168   3      25.467775816431363      21.580748447498955      18.906931793806987
   169   1      14.888971200000002      18.911533366608488      2.4313588156662806
   170   1      17.866765440000002      20.630763672663804      3.6470382234994192
   171   2      13.400074080000001      16.332687907525511     0.60783970391657283
   172   2      11.911176960000002      18.911533366608488     0.60783970391657338
   173   2      11.911176960000002      17.192303060553169      3.0391985195828486
   174   2      10.422279840000002      16.332687907525511     0.60783970391657283
   175   3      16.534399052019843      17.961548591773337      1.7596181393563697
   176   3      14.888974177794243      20.811508073969705      1.7596181393563703
   177   3      14.888974177794243      18.911535085838793      4.4465857073136421
   178   3      13.243549303568642      17.961548591773337      1.7596181393563697
   179   3      16.221337587980159      21.580748447498955      4.3187788998093293
   180   3      17.866762462205763      18.730788965302587      4.3187788998093284
   181   3      17.866762462205763      20.630761953433499      1.6318113318520573
   182   3       19.51218733643136      21.580748447498955      4.3187788998093293
   183   1      17.866765440000002      20.630763672663804      7.2940764469988331
   184   1      20.844559680000003       22.34999397871912      8.5097558548319725
   185   2      16.377868320000005      18.051918213580826      5.4705573352491257
   186   2      14.888971200000004      20.630763672663804      5.4705573352491257
   187   2      14.888971200000004      18.911533366608484      7.9019161509154019
   188   2      13.400074080000003      18.051918213580826      5.4705573352491257
   189   3      19.512193292019845      19.680778897828652       6.622335770688923
   190   3      17.866768417794244      22.530738380025021      6.6223357706889239
   191   3      17.866768417794244      20.630765391894109      9.3093033386461954
   192   3      16.221343543568643      19.680778897828652       6.622335770688923
   193   3       19.19913182798016      23.299978753554271      9.1814965311418817
   194   3      20.844556702205765      20.450019271357903      9.1814965311418817
   195   3      20.844556702205765      22.349992259488815      6.4945289631846101
   196   3      22.489981576431362      23.299978753554271      9.1814965311418817
   197   1      20.844559680000003      22.349993978719123      12.156794078331385
   198   1      23.822353920000005      24.069224284774439      13.372473486164525
   199   2      19.355662560000003      19.771148519636146       10.33327496658168
   200   2      17.866765440000002      22.349993978719123       10.33327496658168
   201   2      17.866765440000002      20.630763672663804      12.764633782247955
   202   2      16.377868320000001      19.771148519636146       10.33327496658168
   203   3      22.489987532019843      21.400009203883972      11.485053402021476
   204   3      20.844562657794242       24.24996868608034      11.485053402021476
   205   3      20.844562657794242      22.349995697949428      14.172020969978748
   206   3      19.199137783568645      21.400009203883972      11.485053402021476
   207   3      22.176926067980162       25.01920905960959      14.044214162474434
   208   3      23.822350942205762      22.169249577413222      14.044214162474434
   209   3      23.822350942205762      24.069222565544134      11.357246594517163
   210   3      25.467775816431363       25.01920905960959      14.044214162474434
   211   1      23.822353920000005      24.069224284774439      17.019511709663941
   212   1      26.800148160000003      25.788454590829755      18.235191117497077
   213   2              22.3334568      21.490378825691462      15.195992597914232
   214   2      20.844559680000003      24.069224284774439      15.195992597914232
   215   2      20.844559680000003       22.34999397871912      17.627351413580506
   216   2      19.355662560000003      21.490378825691462      15.195992597914232
   217   3      25.467781772019841      23.119239509939288      16.347771033354025
   218   3      23.822356897794243      25.969198992135656      16.347771033354029
   219   3      23.822356897794243      24.069226004004744      19.034738601311304
   220   3      22.176932023568643      23.119239509939288      16.347771033354025
   221   3      25.154720307980163      26.738439365664906       18.90693179380699
   222   3       26.80014518220576      23.888479883468538       18.90693179380699
   223   3       26.80014518220576       25.78845287159945      16.219964225849719
   224   3      28.445570056431364      26.738439365664906       18.90693179380699
   225   1      11.911176960000002      3.4384606121106343      2.4313588156662771
   226   1              14.8889712      5.1576909181659509      3.6470382234994156
   227   2      10.422279840000002     0.85961515302765856     0.60783970391656927
   228   2      8.9333827200000009      3.4384606121106338     0.60783970391656983
   229   2      8.9333827200000009      1.7192303060553171       3.039198519582845
   230   2      7.4444856000000001     0.85961515302765856     0.60783970391656927
   231   3      13.556604812019842      2.4884758372754838      1.7596181393563664
   232   3      11.911179937794241      5.3384353194718521      1.7596181393563668
   233   3      11.911179937794241      3.4384623313409404      4.4465857073136386
   234   3      10.265755063568641      2.4884758372754838      1.7596181393563664
   235   3      13.243543347980161      6.1076756930011014      4.3187788998093257
   236   3      14.888968222205762      3.2577162108047326      4.3187788998093248
   237   3      14.888968222205762      5.1576891989356453      1.6318113318520537
   238   3      16.534393096431362      6.1076756930011014      4.3187788998093257
   239   1      14.888971200000002      5.1576909181659518      7.2940764469988295
   240   1      17.866765440000002      6.8769212242212685      8.5097558548319689
   241   2      13.400074080000001      2.5788454590829759      5.4705573352491221
   242   2      11.911176960000002      5.1576909181659509      5.4705573352491221
   243   2      11.911176960000002      3.4384606121106343      7.9019161509153983
   244   2      10.422279840000002      2.5788454590829759      5.4705573352491221
   245   3      16.534399052019843      4.2077061433308014      6.6223357706889194
   246   3      14.888974177794243      7.0576656255271697      6.6223357706889203
   247   3      14.888974177794243      5.1576926373962575      9.3093033386461919
   248   3      13.243549303568642      4.2077061433308014      6.6223357706889194
   249   3      16.221337587980159      7.8269059990564189      9.1814965311418781
   250   3      17.866762462205763      4.9769465168600497      9.1814965311418781
   251   3      17.866762462205763      6.8769195049909628      6.4945289631846066
   252   3       19.51218733643136      7.8269059990564189      9.1814965311418781
   253   1      17.866765440000002      6.8769212242212685      12.156794078331382
   254   1      20.844559680000003      8.5961515302765861      13.372473486164521
   255   2      16.377868320000005       4.298075765138293      10.333274966581676
   256   2      14.888971200000004      6.8769212242212685      10.333274966581676
   257   2      14.888971200000004      5.1576909181659518      12.764633782247952
   258   2      13.400074080000003       4.298075765138293      10.333274966581676
   259   3      19.512193292019845       5.926936449386119      11.485053402021473
   260   3      17.866768417794244      8.7768959315824873      11.485053402021473
   261   3      17.866768417794244      6.8769229434515751      14.172020969978744
   262   3      16.221343543568643       5.926936449386119      11.485053402021473
   263   3       19.19913182798016      9.5461363051117356      14.044214162474431
   264   3      20.844556702205765      6.6961768229153673      14.044214162474431
   265   3      20.844556702205765      8.5961498110462795      11.357246594517159
   266   3      22.489981576431362      9.5461363051117356      14.044214162474431
   267   1      20.844559680000003      8.5961515302765861      17.019511709663938
   268   1      23.822353920000001      10.315381836331902      18.235191117497074
   269   2      19.355662559999999      6.0173060711936106      15.195992597914229
   270   2      17.866765440000002      8.5961515302765861      15.195992597914229
   271   2      17.866765440000002      6.8769212242212685      17.627351413580502
   272   2      16.377868320000001      6.0173060711936106      15.195992597914229
   273   3      22.489987532019839      7.6461667554414356      16.347771033354022
   274   3      20.844562657794242      10.496126237637803      16.347771033354025
   275   3      20.844562657794242      8.5961532495068926        19.0347386013113
   276   3      19.199137783568641      7.6461667554414356      16.347771033354022
   277   3      22.176926067980162      11.265366611167053      18.906931793806987
   278   3      23.822350942205759      8.4154071289706849      18.906931793806987
   279   3      23.822350942205759      10.315380117101597      16.219964225849715
   280   3      25.467775816431363      11.265366611167053      18.906931793806987
   281   1      14.888971200000002      8.5961515302765861       2.431358815666278
   282   1      17.866765440000002      10.315381836331902      3.6470382234994165
   283   2      13.400074080000001      6.0173060711936097     0.60783970391657038
   284   2      11.911176960000002      8.5961515302765843     0.60783970391657105
   285   2      11.911176960000002      6.8769212242212685      3.0391985195828464
   286   2      10.422279840000002      6.0173060711936097     0.60783970391657038
   287   3      16.534399052019843      7.6461667554414348      1.7596181393563675
   288   3      14.888974177794243      10.496126237637803      1.7596181393563681
   289   3      14.888974177794243      8.5961532495068909      4.4465857073136394
   290   3      13.243549303568642      7.6461667554414348      1.7596181393563675
   291   3      16.221337587980159      11.265366611167053      4.3187788998093266
   292   3      17.866762462205763      8.4154071289706831      4.3187788998093257
   293   3      17.866762462205763      10.315380117101597      1.6318113318520551
   294   3       19.51218733643136      11.265366611167053      4.3187788998093266
   295   1      17.866765440000002      10.315381836331902      7.2940764469988313
   296   1      20.844559680000003      12.034612142387219      8.5097558548319707
   297   2      16.377868320000005      7.7365363772489273       5.470557335249123
   298   2      14.888971200000004      10.315381836331902      5.4705573352491239
   299   2      14.888971200000004      8.5961515302765861      7.9019161509153992
   300   2      13.400074080000003      7.7365363772489273       5.470557335249123
   301   3      19.512193292019845      9.3653970614967523      6.6223357706889203
   302   3      17.866768417794244      12.215356543693121      6.6223357706889212
   303   3      17.866768417794244      10.315383555562208      9.3093033386461919
   304   3      16.221343543568643      9.3653970614967523      6.6223357706889203
   305   3       19.19913182798016      12.984596917222369      9.1814965311418799
   306   3      20.844556702205765      10.134637435026001      9.1814965311418781
   307   3      20.844556702205765      12.034610423156913      6.4945289631846075
   308   3      22.489981576431362      12.984596917222369      9.1814965311418799
   309   1      20.844559680000003      12.034612142387221      12.156794078331384
   310   1      23.822353920000005      13.753842448442537      13.372473486164523
   311   2      19.355662560000003       9.455766683304244      10.333274966581676
   312   2      17.866765440000002      12.034612142387219      10.333274966581678
   313   2      17.866765440000002      10.315381836331904      12.764633782247952
   314   2      16.377868320000001       9.455766683304244      10.333274966581676
   315   3      22.489987532019843       11.08462736755207      11.485053402021473
   316   3      20.844562657794242      13.934586849748438      11.485053402021475
   317   3      20.844562657794242      12.034613861617526      14.172020969978746
   318   3      19.199137783568645       11.08462736755207      11.485053402021473
   319   3      22.176926067980162      14.703827223277688      14.044214162474432
   320   3      23.822350942205762      11.853867741081318      14.044214162474432
   321   3      23.822350942205762      13.753840729212232      11.357246594517161
   322   3      25.467775816431363      14.703827223277688      14.044214162474432
   323   1      23.822353920000005      13.753842448442537      17.019511709663938
   324   1      26.800148160000003      15.473072754497853      18.235191117497074
   325   2              22.3334568       11.17499698935956      15.195992597914229
   326   2      20.844559680000003      13.753842448442535      15.195992597914231
   327   2      20.844559680000003      12.034612142387219      17.627351413580506
   328   2      19.355662560000003       11.17499698935956      15.195992597914229
   329   3      25.467781772019841      12.803857673607386      16.347771033354025
   330   3      23.822356897794243      15.653817155803754      16.347771033354025
   331   3      23.822356897794243      13.753844167672842        19.0347386013113
   332   3      22.176932023568643      12.803857673607386      16.347771033354025
   333   3      25.154720307980163      16.423057529333004      18.906931793806987
   334   3       26.80014518220576      13.573098047136634      18.906931793806987
   335   3       26.80014518220576      15.473071035267548      16.219964225849715
   336   3      28.445570056431364      16.423057529333004      18.906931793806987
   337   1      17.866765440000002      13.753842448442537      2.4313588156662793
   338   1      20.844559680000003      15.473072754497853      3.6470382234994179
   339   2      16.377868320000005       11.17499698935956     0.60783970391657161
   340   2      14.888971200000004      13.753842448442535     0.60783970391657216
   341   2      14.888971200000004      12.034612142387219      3.0391985195828473
   342   2      13.400074080000003       11.17499698935956     0.60783970391657161
   343   3      19.512193292019845      12.803857673607386      1.7596181393563686
   344   3      17.866768417794244      15.653817155803754      1.7596181393563692
   345   3      17.866768417794244      13.753844167672842      4.4465857073136412
   346   3      16.221343543568643      12.803857673607386      1.7596181393563686
   347   3       19.19913182798016      16.423057529333004      4.3187788998093275
   348   3      20.844556702205765      13.573098047136634      4.3187788998093266
   349   3      20.844556702205765      15.473071035267548      1.6318113318520562
   350   3      22.489981576431362      16.423057529333004      4.3187788998093275
   351   1      20.844559680000003      15.473072754497853      7.2940764469988322
   352   1      23.822353920000005      17.192303060553172      8.5097558548319707
   353   2      19.355662560000006      12.894227295414877      5.4705573352491239
   354   2      17.866765440000005      15.473072754497853      5.4705573352491248
   355   2      17.866765440000005      13.753842448442537       7.901916150915401
   356   2      16.377868320000005      12.894227295414877      5.4705573352491239
   357   3      22.489987532019846      14.523087979662703      6.6223357706889221
   358   3      20.844562657794246      17.373047461859073      6.6223357706889221