LAMMPS (2 Apr 2025)
OMP_NUM_THREADS environment is not set. Defaulting to 1 thread. (src/comm.cpp:99)
  using 1 OpenMP thread(s) per MPI task
# Define Variables
variable temp equal 300
variable rdf_bins equal 200
variable sim_run equal 2

# Define the Units
units real
atom_style atomic

# Create a Simulation Box
read_data Ar.data
Reading data file ...
  orthogonal box = (0 0 0) to (42.08 42.08 42.08)
  1 by 1 by 1 MPI processor grid
  reading atoms ...
  2048 atoms
  read_data CPU = 0.042 seconds

# Assign the Group to Argon and Assign it's mass
group Ar type 1
2048 atoms in group Ar
mass 1 39.948

# Define the Potential of the Simulation
pair_style lj/cut 10.0
pair_coeff 1 1 1.0 1.0

# Set the initial velocity
velocity all create ${temp} 54343
velocity all create 300 54343

# Define the Thermodynamics Output
thermo 100
thermo_style custom step temp press vol etotal

# Compute the RDF
compute RDF all rdf ${rdf_bins}
compute RDF all rdf 200

# Run the Simulation
fix integrate1 all nvt temp ${temp} ${temp} 5.0
fix integrate1 all nvt temp 300 ${temp} 5.0
fix integrate1 all nvt temp 300 300 5.0
fix rdf_pre all ave/time 100 10 1000 c_RDF[*] file RDF_Pre_Sim${sim_run}.data mode vector
fix rdf_pre all ave/time 100 10 1000 c_RDF[*] file RDF_Pre_Sim2.data mode vector
timestep 0.005

# Run the Simulation
run 20000
Generated 0 of 0 mixed pair_coeff terms from geometric mixing rule
Neighbor list info ...
  update: every = 1 steps, delay = 0 steps, check = yes
  max neighbors/atom: 2000, page size: 100000
  master list distance cutoff = 12
  ghost atom cutoff = 12
  binsize = 6, bins = 8 8 8
  2 neighbor lists, perpetual/occasional/extra = 1 1 0
  (1) pair lj/cut, perpetual
      attributes: half, newton on
      pair build: half/bin/atomonly/newton
      stencil: half/bin/3d
      bin: standard
  (2) compute rdf, occasional, copy from (1)
      attributes: half, newton on
      pair build: copy
      stencil: none
      bin: none
Per MPI rank memory allocation (min/avg/max) = 4.093 | 4.093 | 4.093 Mbytes
   Step          Temp          Press          Volume         TotEng    
         0   300            1082.6031      74512.167      1808.56      
       100   300.00001      1082.603       74512.167      1808.56      
       200   300.00004      1082.6028      74512.167      1808.56      
       300   300.0001       1082.6024      74512.167      1808.56      
       400   300.00017      1082.6018      74512.167      1808.56      
       500   300.00026      1082.601       74512.167      1808.56      
       600   300.00037      1082.6001      74512.167      1808.5599    
       700   300.00049      1082.5989      74512.167      1808.5597    
       800   300.00062      1082.5976      74512.167      1808.5595    
       900   300.00076      1082.596       74512.167      1808.5592    
      1000   300.0009       1082.5942      74512.167      1808.5588    
      1100   300.00103      1082.5921      74512.167      1808.5582    
      1200   300.00114      1082.5896      74512.167      1808.5573    
      1300   300.00123      1082.5869      74512.167      1808.5562    
      1400   300.00127      1082.5837      74512.167      1808.5547    
      1500   300.00126      1082.5801      74512.167      1808.5526    
      1600   300.00118      1082.576       74512.167      1808.55      
      1700   300.001        1082.5712      74512.167      1808.5467    
      1800   300.00071      1082.5658      74512.167      1808.5426    
      1900   300.00029      1082.5597      74512.167      1808.5376    
      2000   299.99974      1082.5529      74512.167      1808.5316    
      2100   299.99906      1082.5452      74512.167      1808.5247    
      2200   299.99824      1082.5369      74512.167      1808.5168    
      2300   299.99731      1082.5278      74512.167      1808.5081    
      2400   299.99628      1082.5181      74512.167      1808.4987    
      2500   299.99517      1082.5079      74512.167      1808.4886    
      2600   299.994        1082.4973      74512.167      1808.4781    
      2700   299.99282      1082.4863      74512.167      1808.4673    
      2800   299.99165      1082.4752      74512.167      1808.4565    
      2900   299.99053      1082.4639      74512.167      1808.4458    
      3000   299.98947      1082.4527      74512.167      1808.4354    
      3100   299.98853      1082.4417      74512.167      1808.4256    
      3200   299.98772      1082.4311      74512.167      1808.4165    
      3300   299.98708      1082.4208      74512.167      1808.4083    
      3400   299.98662      1082.4111      74512.167      1808.4011    
      3500   299.98638      1082.402       74512.167      1808.3952    
      3600   299.98636      1082.3934      74512.167      1808.3905    
      3700   299.9866       1082.3856      74512.167      1808.3872    
      3800   299.98709      1082.3786      74512.167      1808.3854    
      3900   299.98784      1082.3724      74512.167      1808.3851    
      4000   299.98886      1082.367       74512.167      1808.3863    
      4100   299.99015      1082.3624      74512.167      1808.389     
      4200   299.9917       1082.3587      74512.167      1808.3933    
      4300   299.99349      1082.3556      74512.167      1808.3989    
      4400   299.99551      1082.3531      74512.167      1808.4057    
      4500   299.99773      1082.3513      74512.167      1808.4137    
      4600   300.00013      1082.35        74512.167      1808.4228    
      4700   300.00267      1082.349       74512.167      1808.4326    
      4800   300.00532      1082.348       74512.167      1808.4428    
      4900   300.00803      1082.3469      74512.167      1808.4532    
      5000   300.01075      1082.3458      74512.167      1808.4637    
      5100   300.01342      1082.3442      74512.167      1808.4737    
      5200   300.01599      1082.3422      74512.167      1808.483     
      5300   300.01839      1082.3393      74512.167      1808.4912    
      5400   300.02056      1082.3352      74512.167      1808.4978    
      5500   300.02242      1082.3297      74512.167      1808.5023    
      5600   300.0239       1082.3224      74512.167      1808.5044    
      5700   300.02493      1082.3134      74512.167      1808.5036    
      5800   300.02543      1082.3021      74512.167      1808.4995    
      5900   300.02533      1082.2882      74512.167      1808.4916    
      6000   300.02456      1082.2716      74512.167      1808.4794    
      6100   300.02306      1082.252       74512.167      1808.4627    
      6200   300.02077      1082.2294      74512.167      1808.441     
      6300   300.01765      1082.2031      74512.167      1808.4141    
      6400   300.01367      1082.1735      74512.167      1808.3818    
      6500   300.00881      1082.1403      74512.167      1808.344     
      6600   300.00308      1082.1036      74512.167      1808.3006    
      6700   299.99649      1082.0635      74512.167      1808.252     
      6800   299.98909      1082.0199      74512.167      1808.1983    
      6900   299.98094      1081.9735      74512.167      1808.1399    
      7000   299.97215      1081.9241      74512.167      1808.0773    
      7100   299.96283      1081.8726      74512.167      1808.0114    
      7200   299.95313      1081.8192      74512.167      1807.9429    
      7300   299.9432       1081.7648      74512.167      1807.8729    
      7400   299.93325      1081.7101      74512.167      1807.8027    
      7500   299.92348      1081.6557      74512.167      1807.7334    
      7600   299.91412      1081.6027      74512.167      1807.6665    
      7700   299.90543      1081.5517      74512.167      1807.6034    
      7800   299.89765      1081.5038      74512.167      1807.5457    
      7900   299.89105      1081.4602      74512.167      1807.4951    
      8000   299.88588      1081.4217      74512.167      1807.4532    
      8100   299.88241      1081.3893      74512.167      1807.4214    
      8200   299.88088      1081.3638      74512.167      1807.4014    
      8300   299.88153      1081.3461      74512.167      1807.3943    
      8400   299.88455      1081.337       74512.167      1807.4017    
      8500   299.89014      1081.3372      74512.167      1807.4245    
      8600   299.89843      1081.3474      74512.167      1807.4637    
      8700   299.90952      1081.3675      74512.167      1807.5198    
      8800   299.92347      1081.3982      74512.167      1807.5931    
      8900   299.94027      1081.4393      74512.167      1807.6838    
      9000   299.95988      1081.4905      74512.167      1807.7914    
      9100   299.98215      1081.5515      74512.167      1807.9151    
      9200   300.00691      1081.6214      74512.167      1808.0537    
      9300   300.03389      1081.6995      74512.167      1808.2059    
      9400   300.06275      1081.7843      74512.167      1808.3694    
      9500   300.0931       1081.8744      74512.167      1808.5418    
      9600   300.12445      1081.9677      74512.167      1808.72      
      9700   300.15624      1082.0625      74512.167      1808.9008    
      9800   300.18787      1082.1565      74512.167      1809.0805    
      9900   300.21865      1082.2471      74512.167      1809.2549    
     10000   300.24786      1082.3313      74512.167      1809.4194    
     10100   300.2747       1082.4064      74512.167      1809.5694    
     10200   300.29838      1082.4693      74512.167      1809.6998    
     10300   300.31805      1082.5168      74512.167      1809.8056    
     10400   300.33289      1082.546       74512.167      1809.8818    
     10500   300.34207      1082.5535      74512.167      1809.9233    
     10600   300.34479      1082.5367      74512.167      1809.9252    
     10700   300.34031      1082.4926      74512.167      1809.883     
     10800   300.32797      1082.4188      74512.167      1809.7926    
     10900   300.30717      1082.313       74512.167      1809.6505    
     11000   300.27748      1082.1736      74512.167      1809.4539    
     11100   300.23856      1081.9992      74512.167      1809.2009    
     11200   300.19025      1081.7896      74512.167      1808.8904    
     11300   300.1326       1081.5446      74512.167      1808.5227    
     11400   300.06581      1081.265       74512.167      1808.0992    
     11500   299.99034      1080.9528      74512.167      1807.6225    
     11600   299.90688      1080.6104      74512.167      1807.0969    
     11700   299.81633      1080.241       74512.167      1806.5279    
     11800   299.71988      1079.8492      74512.167      1805.9226    
     11900   299.61894      1079.4404      74512.167      1805.2898    
     12000   299.51517      1079.0204      74512.167      1804.6395    
     12100   299.41046      1078.5969      74512.167      1803.9834    
     12200   299.30692      1078.1774      74512.167      1803.3342    
     12300   299.20683      1077.7703      74512.167      1802.7059    
     12400   299.11266      1077.3852      74512.167      1802.1135    
     12500   299.02697      1077.0314      74512.167      1801.5727    
     12600   298.95243      1076.7191      74512.167      1801.0997    
     12700   298.89176      1076.4584      74512.167      1800.7112    
     12800   298.84764      1076.2594      74512.167      1800.4236    
     12900   298.82271      1076.1318      74512.167      1800.2528    
     13000   298.8195       1076.085       74512.167      1800.2143    
     13100   298.84034      1076.1282      74512.167      1800.3225    
     13200   298.88733      1076.2688      74512.167      1800.59      
     13300   298.96226      1076.5136      74512.167      1801.0278    
     13400   299.06651      1076.868       74512.167      1801.6444    
     13500   299.201        1077.3352      74512.167      1802.4453    
     13600   299.36612      1077.9166      74512.167      1803.4328    
     13700   299.5616       1078.6114      74512.167      1804.6055    
     13800   299.78648      1079.4158      74512.167      1805.9573    
     13900   300.03901      1080.3235      74512.167      1807.4777    
     14000   300.31661      1081.3246      74512.167      1809.1507    
     14100   300.61582      1082.4062      74512.167      1810.9555    
     14200   300.93232      1083.5521      74512.167      1812.8656    
     14300   301.26092      1084.7431      74512.167      1814.8493    
     14400   301.59561      1085.9563      74512.167      1816.8699    
     14500   301.92968      1087.167       74512.167      1818.8866    
     14600   302.2558       1088.3474      74512.167      1820.8545    
     14700   302.56613      1089.4684      74512.167      1822.726     
     14800   302.85251      1090.4994      74512.167      1824.451     
     14900   303.10655      1091.4089      74512.167      1825.9785    
     15000   303.31976      1092.1651      74512.167      1827.2566    
     15100   303.4837       1092.7366      74512.167      1828.234     
     15200   303.59006      1093.0924      74512.167      1828.8599    
     15300   303.63081      1093.202       74512.167      1829.0851    
     15400   303.59828      1093.0369      74512.167      1828.8631    
     15500   303.48541      1092.5707      74512.167      1828.1506    
     15600   303.28597      1091.78        74512.167      1826.9097    
     15700   302.99492      1090.6461      74512.167      1825.1096    
     15800   302.60891      1089.1564      74512.167      1822.7299    
     15900   302.12685      1087.3068      74512.167      1819.7639    
     16000   301.55062      1085.1043      74512.167      1816.2232    
     16100   300.88573      1082.5696      74512.167      1812.1413    
     16200   300.14183      1079.7388      74512.167      1807.577     
     16300   299.33289      1076.6642      74512.167      1802.6158    
     16400   298.47704      1073.4137      74512.167      1797.3682    
     16500   297.59567      1070.0672      74512.167      1791.9646    
     16600   296.7123       1066.713       74512.167      1786.5487    
     16700   295.85101      1063.441       74512.167      1781.2672    
     16800   295.035        1060.3383      74512.167      1776.262     
     16900   294.28544      1057.484       74512.167      1771.662     
     17000   293.62078      1054.9472      74512.167      1767.5799    
     17100   293.05667      1052.7865      74512.167      1764.1111    
     17200   292.60628      1051.0513      74512.167      1761.3361    
     17300   292.28099      1049.7838      74512.167      1759.3241    
     17400   292.09123      1049.0233      74512.167      1758.139     
     17500   292.04744      1048.8088      74512.167      1757.8442    
     17600   292.16081      1049.1822      74512.167      1758.5082    
     17700   292.44387      1050.1904      74512.167      1760.2074    
     17800   292.91042      1051.8851      74512.167      1763.0259    
     17900   293.57451      1054.3188      74512.167      1767.0496    
     18000   294.44778      1057.535       74512.167      1772.3493    
     18100   295.53462      1061.5501      74512.167      1778.9519    
     18200   296.82545      1066.3283      74512.167      1786.7989    
     18300   298.28965      1071.755       74512.167      1795.7034    
     18400   299.87171      1077.6223      74512.167      1805.3268    
     18500   301.49467      1083.6421      74512.167      1815.1995    
     18600   303.07182      1089.4899      74512.167      1824.7923    
     18700   304.52274      1094.8645      74512.167      1833.6145    
     18800   305.78652      1099.5381      74512.167      1841.2946    
     18900   306.82717      1103.3759      74512.167      1847.6129    
     19000   307.63143      1106.3283      74512.167      1852.4886    
     19100   308.20247      1108.407       74512.167      1855.9408    
     19200   308.55313      1109.6603      74512.167      1858.0481    
     19300   308.70077      1110.1531      74512.167      1858.9164    
     19400   308.6643       1109.9563      74512.167      1858.661     
     19500   308.46274      1109.141       74512.167      1857.398     
     19600   308.11507      1107.7783      74512.167      1855.2433    
     19700   307.64048      1105.9403      74512.167      1852.314     
     19800   307.05887      1103.7011      74512.167      1848.7314    
     19900   306.39118      1101.1393      74512.167      1844.6233    
     20000   305.65937      1098.337       74512.167      1840.1237    
Loop time of 121.09 on 1 procs for 20000 steps with 2048 atoms

Performance: 0.071 ns/day, 336.360 hours/ns, 165.167 timesteps/s, 338.262 katom-step/s
100.0% CPU use with 1 MPI tasks x 1 OpenMP threads

MPI task timing breakdown:
Section |  min time  |  avg time  |  max time  |%varavg| %total
---------------------------------------------------------------
Pair    | 115.35     | 115.35     | 115.35     |   0.0 | 95.26
Neigh   | 0          | 0          | 0          |   0.0 |  0.00
Comm    | 1.5465     | 1.5465     | 1.5465     |   0.0 |  1.28
Output  | 0.0064377  | 0.0064377  | 0.0064377  |   0.0 |  0.01
Modify  | 3.4836     | 3.4836     | 3.4836     |   0.0 |  2.88
Other   |            | 0.7055     |            |       |  0.58

Nlocal:           2048 ave        2048 max        2048 min
Histogram: 1 0 0 0 0 0 0 0 0 0
Nghost:           5765 ave        5765 max        5765 min
Histogram: 1 0 0 0 0 0 0 0 0 0
Neighs:         204800 ave      204800 max      204800 min
Histogram: 1 0 0 0 0 0 0 0 0 0

Total # of neighbors = 204800
Ave neighs/atom = 100
Neighbor list builds = 0
Dangerous builds = 0
unfix integrate1

# Output the RDF Data to the Dump Folder
fix integrate2 all nvt temp ${temp} ${temp} 5.0
fix integrate2 all nvt temp 300 ${temp} 5.0
fix integrate2 all nvt temp 300 300 5.0

# Dump the files for the positions of the Atoms every 100 Frames
dump            myDump1 all custom 100 Dumpfiles/_*.dump id type element x y z vx vy vz fx fy fz
dump_modify 	myDump1 element Ar

# Run the Simulation
run 500000
Generated 0 of 0 mixed pair_coeff terms from geometric mixing rule
Per MPI rank memory allocation (min/avg/max) = 5.237 | 5.237 | 5.237 Mbytes
   Step          Temp          Press          Volume         TotEng    
     20000   305.65937      1098.337       74512.167      1840.1237    
     20100   305.60738      1098.0792      74512.167      1839.7721    
     20200   305.44009      1097.3892      74512.167      1838.7166    
     20300   305.15774      1096.268       74512.167      1836.9587    
     20400   304.76096      1094.7179      74512.167      1834.5024    
     20500   304.25112      1092.7443      74512.167      1831.356     
     20600   303.6308       1090.3566      74512.167      1827.5352    
     20700   302.90438      1087.5715      74512.167      1823.0669    
     20800   302.07889      1084.415       74512.167      1817.9938    
     20900   301.16478      1080.9263      74512.167      1812.3797    
     21000   300.17665      1077.1601      74512.167      1806.3137    
     21100   299.13362      1073.188       74512.167      1799.9126    
     21200   298.05906      1069.0976      74512.167      1793.3189    
     21300   296.97962      1064.9884      74512.167      1786.6951    
     21400   295.92354      1060.9663      74512.167      1780.2137    
     21500   294.91862      1057.1354      74512.167      1774.0442    
     21600   293.99025      1053.5907      74512.167      1768.3417    
     21700   293.16006      1050.4129      74512.167      1763.2379    
     21800   292.44528      1047.6669      74512.167      1758.8382    
     21900   291.85905      1045.4016      74512.167      1755.2225    
     22000   291.41138      1043.6546      74512.167      1752.4522    
     22100   291.11085      1042.4578      74512.167      1750.5793    
     22200   290.96673      1041.8461      74512.167      1749.6605    
     22300   290.99189      1041.8675      74512.167      1749.7744    
     22400   291.20666      1042.5981      74512.167      1751.0449    
     22500   291.64382      1044.1605      74512.167      1753.6719    
     22600   292.35378      1046.7436      74512.167      1757.9632    
     22700   293.40615      1050.6077      74512.167      1764.3435    
     22800   294.87764      1056.04        74512.167      1773.2807    
     22900   296.81285      1063.2075      74512.167      1785.047     
     23000   299.15908      1071.9126      74512.167      1799.3208    
     23100   301.72108      1081.4245      74512.167      1814.9105    
     23200   304.20718      1090.6513      74512.167      1830.0367    
     23300   306.35844      1098.6239      74512.167      1843.1193    
     23400   308.04611      1104.8602      74512.167      1853.3727    
     23500   309.267        1109.3483      74512.167      1860.7775    
     23600   310.08194      1112.3162      74512.167      1865.7049    
     23700   310.56271      1114.0325      74512.167      1868.593     
     23800   310.76784      1114.7164      74512.167      1869.7989    
     23900   310.73842      1114.5215      74512.167      1869.5731    
     24000   310.50189      1113.5507      74512.167      1868.0833    
     24100   310.07745      1111.8759      74512.167      1865.4466    
     24200   309.48074      1109.5557      74512.167      1861.7585    
     24300   308.7275       1106.6491      74512.167      1857.115     
     24400   307.83619      1103.2249      74512.167      1851.6286    
     24500   306.8296       1099.3688      74512.167      1845.4386    
     24600   305.73525      1095.1835      74512.167      1838.7128    
     24700   304.58458      1090.7871      74512.167      1831.6431    
     24800   303.41099      1086.3043      74512.167      1824.4333    
     24900   302.24718      1081.8575      74512.167      1817.2828    
     25000   301.12257      1077.557       74512.167      1810.3713    
     25100   300.06143      1073.4936      74512.167      1803.8467    
     25200   299.08199      1069.7355      74512.167      1797.8204    
     25300   298.19667      1066.3293      74512.167      1792.3682    
     25400   297.41297      1063.3029      74512.167      1787.5356    
     25500   296.73464      1060.6703      74512.167      1783.3457    
     25600   296.16296      1058.4364      74512.167      1779.8063    
     25700   295.69769      1056.6002      74512.167      1776.9157    
     25800   295.33781      1055.1578      74512.167      1774.6679    
     25900   295.08205      1054.1046      74512.167      1773.055     
     26000   294.92915      1053.4357      74512.167      1772.0693    
     26100   294.87799      1053.1469      74512.167      1771.7041    
     26200   294.92767      1053.2349      74512.167      1771.9538    
     26300   295.07744      1053.6969      74512.167      1772.8137    
     26400   295.32659      1054.53        74512.167      1774.2797    
     26500   295.67432      1055.7314      74512.167      1776.3467    
     26600   296.11946      1057.2967      74512.167      1779.0077    
     26700   296.66015      1059.2187      74512.167      1782.2512    
     26800   297.29345      1061.4867      74512.167      1786.0593    
     26900   298.01476      1064.0832      74512.167      1790.404     
     27000   298.81733      1066.9829      74512.167      1795.244     
     27100   299.69165      1070.1503      74512.167      1800.5212    
     27200   300.62507      1073.538       74512.167      1806.1586    
     27300   301.60166      1077.0862      74512.167      1812.0589    
     27400   302.60246      1080.7241      74512.167      1818.1062    
     27500   303.60616      1084.3719      74512.167      1824.1708    
     27600   304.59019      1087.945       74512.167      1830.1147    
     27700   305.53196      1091.3588      74512.167      1835.8003    
     27800   306.4101       1094.5335      74512.167      1841.097     
     27900   307.20528      1097.3966      74512.167      1845.8869    
     28000   307.90052      1099.8847      74512.167      1850.0666    
     28100   308.48091      1101.9418      74512.167      1853.5449    
     28200   308.93257      1103.516       74512.167      1856.2371    
     28300   309.24081      1104.5523      74512.167      1858.0538    
     28400   309.3875       1104.9831      74512.167      1858.8841    
     28500   309.34737      1104.7135      74512.167      1858.5741    
     28600   309.08384      1103.6069      74512.167      1856.9005    
     28700   308.54591      1101.4721      74512.167      1853.552     
     28800   307.67046      1098.0732      74512.167      1848.1437    
     28900   306.39725      1093.1844      74512.167      1840.3078    
     29000   304.70182      1086.7147      74512.167      1829.8954    
     29100   302.63846      1078.8671      74512.167      1817.2378    
     29200   300.36211      1070.2216      74512.167      1803.2802    
     29300   298.09384      1061.6059      74512.167      1789.3716    
     29400   296.03919      1053.7894      74512.167      1776.7662    
     29500   294.32123      1047.2327      74512.167      1766.2149    
