LAMMPS (2 Apr 2025)
OMP_NUM_THREADS environment is not set. Defaulting to 1 thread. (src/comm.cpp:99)
  using 1 OpenMP thread(s) per MPI task
# Define Variables
variable temp equal 1.5
variable rdf_bins equal 50
variable sim_run equal 2
variable cut_off equal 2.5
variable dt equal 0.005

# Define the Units
units lj
atom_style atomic

# Create a Simulation Box
read_data Kr.data
Reading data file ...
  orthogonal box = (0 0 0) to (45.6 45.6 45.6)
  1 by 1 by 1 MPI processor grid
  reading atoms ...
  2048 atoms
  read_data CPU = 0.030 seconds

# Assign the Group to Krypton and Assign it's mass
group Kr type 1
2048 atoms in group Kr
mass 1 1.0

# Define the Potential of the Simulation
pair_style lj/cut ${cut_off}
pair_style lj/cut 2.5
pair_coeff 1 1 1.0 1.0

# Set the initial velocity
velocity all create ${temp} 54343
velocity all create 1.5 54343

# Compute the RDF and MSD
compute RDF all rdf ${rdf_bins}
compute RDF all rdf 50
compute MSD all msd

# Run the Simulation
fix integrate1 all npt temp ${temp} ${temp} 1 iso 5 5 1
fix integrate1 all npt temp 1.5 ${temp} 1 iso 5 5 1
fix integrate1 all npt temp 1.5 1.5 1 iso 5 5 1
fix 1 all ave/time 100 10 1000 c_RDF[*] file RDF_Pre_Sim${sim_run}.data mode vector
fix 1 all ave/time 100 10 1000 c_RDF[*] file RDF_Pre_Sim2.data mode vector
fix m_MSD Kr vector 1 c_MSD[4]

variable MSD_Slope equal slope(f_m_MSD)/6/(1*${dt})
variable MSD_Slope equal slope(f_m_MSD)/6/(1*0.005)

# Define the Thermodynamics Output
thermo 100
thermo_style custom step temp press vol etotal c_MSD[4] v_MSD_Slope
timestep ${dt}
timestep 0.005

# Run the Simulation
run 20000
Generated 0 of 0 mixed pair_coeff terms from geometric mixing rule
Neighbor list info ...
  update: every = 1 steps, delay = 0 steps, check = yes
  max neighbors/atom: 2000, page size: 100000
  master list distance cutoff = 2.8
  ghost atom cutoff = 2.8
  binsize = 1.4, bins = 33 33 33
  2 neighbor lists, perpetual/occasional/extra = 1 1 0
  (1) pair lj/cut, perpetual
      attributes: half, newton on
      pair build: half/bin/atomonly/newton
      stencil: half/bin/3d
      bin: standard
  (2) compute rdf, occasional, copy from (1)
      attributes: half, newton on
      pair build: copy
      stencil: none
      bin: none
Per MPI rank memory allocation (min/avg/max) = 3.659 | 3.659 | 3.659 Mbytes
   Step          Temp          Press          Volume         TotEng        c_MSD[4]     v_MSD_Slope  
         0   1.5            0.032382813    94818.816      2.2489014      0              3.3333333e+21
       100   3.0613737      0.23564735     31157.635      4.4636011      51.941114      18.429819    
       200   4.3065218      0.56452623     17183.394      5.9172444      104.56998      18.563193    
       300   4.7027765      1.0903194      11404.659      6.306142       145.49113      17.081759    
       400   4.7087418      1.4984499      8405.8084      5.9708369      176.37861      15.395014    
       500   4.4064817      1.981565       6618.4788      5.2102264      199.81088      13.776089    
       600   4.0511633      2.3334133      5465.7505      4.3080776      217.52008      12.322904    
       700   3.7000901      2.6571662      4669.8493      3.3869919      230.62565      11.032526    
       800   3.312352       3.1552055      4094.6023      2.504552       241.17981      9.8984791    
       900   2.9924793      3.6301821      3674.8276      1.7048523      250.17932      8.9288503    
      1000   2.7146547      3.9293614      3373.9577      0.97302499     257.02045      8.0913867    
      1100   2.4822638      4.1317163      3139.2786      0.31951782     262.63234      7.3625546    
      1200   2.3042786      4.1909956      2964.2668     -0.26617537     267.28639      6.723513     
      1300   2.0825983      4.571105       2834.1483     -0.78296944     271.03038      6.1612536    
      1400   1.939896       4.7470049      2722.5927     -1.2212443      274.49015      5.6656657    
      1500   1.7953336      4.8648015      2641.1688     -1.6155734      276.60898      5.225414     
      1600   1.6617865      5.0430641      22559.3771     -1.9895792      222.38699      3.9090828    
      1700   1.6215192      4.7222317      2511.4108     -2.262672       223.55386      3.6208129    
      1800   1.5156115      4.7745345      2481.6623     -2.5039632      224.54566      3.3620724    
      1900   1.4604154      4.9056327      2448.1717     -2.6584588      225.74683      3.1289022    
      2000   1.4361425      4.8668123      2424.0198     -2.7737368      226.65692      2.9199412    
      2100   1.3886771      5.1131333      2410.1448     -2.8514535      227.09584      2.7301742    
      2200   1.400656       5.1423577      2397.2304     -2.8661028      227.85453      2.5574567    
      2300   1.4233665      5.0338327      2399.7166     -2.8490257      227.71411      2.3991925    
      2400   1.4214021      5.1523835      2409.8339     -2.7906617      227.39455      2.2524588    
      2500   1.47329        5.1328569      2420.2631     -2.6925264      227.32447      2.1169744    
      2600   1.5227547      5.0304049      2435.8335     -2.5908058      227.13464      1.9914625    
      2700   1.5179232      4.870678       2462.0361     -2.5302006      227.1146       1.8765211    
      2800   1.5466462      5.076249       2464.0803     -2.4413572      227.26857      1.7706081    
      2900   1.5770656      4.9604702      2472.9479     -2.4083227      227.70756      1.6733829    
      3000   1.5876564      4.8625215      2475.7841     -2.4115661      227.81167      1.5843674    
      3100   1.4926705      5.1178439      2476.646      -2.4655992      228.03589      1.5026044    
      3200   1.5365501      4.9133129      2459.753      -2.5076978      228.6232       1.4271955    
      3300   1.5174833      5.0419277      2444.1276     -2.565759       228.98857      1.3575103    
      3400   1.4852695      5.0083031      2438.2027     -2.6429129      229.41249      1.293276     
      3500   1.4625322      4.7344763      2439.6306     -2.7252403      229.66853      1.2343247    
      3600   1.4302397      5.0860296      2424.4104     -2.743494       230.50293      1.1798802    
      3700   1.4594235      4.7035969      2429.004      -2.7721962      230.70573      1.1295838    
      3800   1.4354075      4.9014859      2431.1164     -2.7529944      231.08735      1.0825081    
      3900   1.4862581      5.07566        2423.7559     -2.6703603      231.47047      1.0385113    
      4000   1.4745608      5.3352344      2431.5297     -2.6054717      231.57257      0.9970725    
      4100   1.5522348      5.0549209      2439.0064     -2.5359148      231.87119      0.95797089         4200   1.5261124      5.1367992      2447.8324     -2.508976       287.25263      1.1149176    
      4300   1.5255566      4.5805062      2483.1893     -2.5201081      287.06842      1.0722265    
      4400   1.5549224      4.9975334      2466.0205     -2.4402197      287.84588      1.0320634    
      4500   1.5713505      5.0377309      2461.8316     -2.4342164      288.21576      0.99425906   
      4600   1.551212       4.9260196      2463.5137     -2.4808836      288.374        0.95871113   
      4700   1.5170084      5.1088653      2452.1594     -2.521924       289.43321      0.92549842   
      4800   1.4987434      4.5813323      2460.8284     -2.6306794      289.65456      0.89467839   
      4900   1.4876119      4.9254196      2436.5276     -2.6640061      289.89649      0.86552665   
      5000   1.4698895      5.2932975      2413.5829     -2.6734977      290.63192      0.8376963    
      5100   1.4509588      4.98729        2424.6893     -2.7283282      290.99332      0.81161828   
      5200   1.4455795      4.8627738      2431.2656     -2.7400359      291.14444      0.78704359   
      5300   1.4467315      4.9151931      2436.4379     -2.7187323      291.3953       0.76368846   
      5400   1.4897229      4.547492       2446.8474     -2.6849047      291.44778      0.74138813   
      5500   1.4854534      4.9776588      2449.1049     -2.6120864      291.59585      0.72010089   
      5600   1.509036       5.1230839      2449.4689     -2..5681113      235.51514      0.58277765   
      5700   1.4903587      5.0282609      2458.2324     -2.5483062      235.9631       0.5669033    
      5800   1.5312856      4.9419449      2458.7681     -2.523565       236.25027      0.55184669   
      5900   1.5202875      4.989982       2458.9165     -2.5183482      236.26821      0.53736595   
      6000   1.4991279      4.7040662      2474.1624     -2.5667223      236.4352       0.52350387   
      6100   1.482959       4.5439397      2478.0851     -2.5964612      236.43987      0.51028597   
      6200   1.4905971      5.0463988      2452.3938     -2.5691175      237.25651      0.49774101   
      6300   1.5393818      5.2460773      2425.7354     -2.5505252      238.12872      0.48574411   
      6400   1.4819482      4.9801781      2440.4203     -2.6388312      238.05588      0.47440838   
      6500   1.4692604      5.0884749      2430.8878     -2.6583443      238.40459      0.46356737   
      6600   1.4808504      5.0704401      2424.2842     -2.6701925      238.84849      0.45318225   
      6700   1.4603585      5.1230941      2424.3671     -2.6820011      239.447        0.44332415   
      6800   1.4506556      4.8552461      2441.1203     -2.716175       239.90369      0.43406347   
      6900   1.4857638      4.8526938      2434.6312     -2.6746208      240.05455      0.4251912    
      7000   1.5091202      5.2635131      2422.2482     -2.6016097      240.44296      0.41652357   
      7100   1.4823913      5.1469115      2437.8085     -2.5957342      240.58898      0.40817508   
      7200   1.5413244      4.9160396      2441.7618     -2.5719406      240.83416      0.40015007   
      7300   1.4771721      4.8897569      2460.1777     -2.5900385      240.99047      0.39238532   
      7400   1.4851883      4.5634158      2473.8851     -2.6072437      241.27645      0.38507661         7500   1.5236457      4.9712448      2457.6918     -2.5228808      297.47052      0.44598424   
      7600   1.4802674      4.9651947      2462.1612     -2.5686851      297.31702      0.43731965   
      7700   1.5293729      5.0595019      2439.8275     -2.5612544      297.93855      0.42889158   
      7800   1.4840524      4.9673872      2442.6463     -2.6233296      298.461        0.42086187   
      7900   1.4774432      5.0576265      2434.1909     -2.6511924      299.02064      0.41319718   
      8000   1.5022616      5.606734       2403.3614     -2.600685       299.56364      0.4057143    
      8100   1.4947731      4.9784628      2427.7558     -2.665803       299.25252      0.39851916   
      8200   1.4722485      4.6187775      2448.395      -2.7022376      299.16763      0.39157947   
      8300   1.4415006      5.0001028      2447.4069     -2.6651942      299.15455      0.38472499   
      8400   1.517609       5.1082495      2434.3385     -2.5762653      299.95528      0.37810647   
      8500   1.5301979      4.8479003      2452.0196     -2.5544265      300.32002      0.37178036   
      8600   1.516773       4.8283187      2467.5443     -2.5377333      300.32428      0.3657355    
      8700   1.5476013      5.286791       2446.7788     -2.4593523      301.17491      0.3598774    
      8800   1.5736921      5.1298511      2446.9701     -2.4562746      301.51867      0.3541814    
      8900   1.5295715      5.057478       2454.4266     -2.5031515      301.11059      0.34860314   
      9000   1.4942507      4.9622399      2458.1353     -2.5654887      301.89669      0.34326141   
      9100   1.4869604      4.8297846      2452.9336     -2.6147552      302.18875      0.33816476   
      9200   1.4856317      5.0693987      2434.8344     -2.6299577      302.75611      0.33320011   
      9300   1.490007       5.1535116      2426.5918     -2.6573246      303.25439      0.32845812   
      9400   1.4692926      5.304127       2419.0286     -2.6636106      303.57933      0.32385293   
      9500   1.4856399      4.9292871      2428.9203     -2.6853426      303.70646      0.31937832   
      9600   1.4747767      4.6861394      2443.4937     -2.6996635      3047.55335      0.27402572   
      9700   1.5259859      4.8927341      2432.4123     -2.6224937      248.13636      0.27051585   
      9800   1.4932938      4.8922496      2442.9266     -2.6404982      248.48289      0.26716052   
      9900   1.4798057      4.9182303      2445.0148     -2.629593       248.78362      0.26392046   
     10000   1.5311777      4.6467337      2447.7277     -2.6179652      248.572        0.26071714   
     10100   1.5123347      5.0773796      2441.6587     -2.5836124      248.85491      0.25751374   
     10200   1.4965208      4.7962331      2457.4219     -2.5945574      249.18725      0.25444061   
     10300   1.4892827      4.6742381      2468.5582     -2.6002886      249.03783      0.25148257   
     10400   1.5480548      5.054665       2441.3826     -2.5271645      249.7146       0.24855      
     10500   1.5463575      5.3583386      2428.8893     -2.5097786      250.18328      0.24571297   
     10600   1.4440976      5.6055123      2438.3132     -2.5663994      250.66094      0.24296397   
     10700   1.4957928      4.6063401      2454.2704     -2.6382244      251.12872      0.24036531   
     10800   1.4740122      4.667047       2455.0099     -2.6660143      251.71063      0.23791228   
     10900   1.4801993      4.7688068      2442.5705     -2.6615136      251.61799      0.23549578   
     11000   1.460356       5.1919561      2432.1422     -2.6486267      251.84287      0.23308898   
     11100   1.457957       5.1388408      2433.4518     -2.651552       252.60198      0.23075889   
     11200   1.4812591      4.8547758      2442.3076     -2.6551578      252.67924      0.22853501   
     11300   1.5084912      5.0310368      2434.2401     -2.6104957      253.07557      0.22633424   
     11400   1.5210889      4.9451347      2441.1951     -2.5982128      253.52707      0.22421123   
     11500   1.5264843      4.86861        2447.5293     -2.5835431      253.69852      0.22215186   
     11600   1.4796877      4.5232253      2475.0201     -2.6240539      253.65981      0.22014231   
     11700   1.4770395      4.784594       2467.735      -2.5880783      253.93076      0.21816524   
     11800   1.550037       5.0690049      2443.8671     -2.5202008      254.37573      0.21620347        11900   1.5136689      5.1205717      2434.3775     -2.5900022      312.07011      0.2453241    
     12000   1.5036467      4.8611632      2441.5446     -2.637277       312.18581      0.24309389   
     12100   1.4850796      4.920896       2437.6152     -2.6468644      312.45641      0.24090787   
     12200   1.4878024      4.9450384      2435.88       -2.6534153      312.90936      0.23878835   
     12300   1.4862483      4.7127848      2442.4592     -2.6817336      312.81043      0.23669937   
     12400   1.4788244      5.0362483      2434.0308     -2.6621117      313.28941      0.23464145   
     12500   1.4945117      5.1927408      2426.9698     -2.6285521      314.18608      0.23265135   
     12600   1.4913498      5.3171716      2427.4455     -2.6029161      314.67812      0.23075569   
     12700   1.5134171      5.0576372      2437.2876     -2.5914732      314.88277      0.22888548   
     12800   1.4785067      4.7836293      2460.5453     -2.607714       314.73294      0.22705444   
     12900   1.4832297      4.8885825      2464.2559     -2.5812383      315.12894      0.22525367   
     13000   1.5267136      5.0297267      2452.0452     -2.5288954      315.54971      0.22350439   
     13100   1.4868608      5.0607631      2461.196      -2.5392141      315.93675      0.2217793    
     13200   1.5110138      4.8235666      2466.088      -2.5512441      316.2318       0.22012714   
     13300   1.5325773      5.0380206      2449.2052     -2.5268268      316.87341      0.21851057   
     13400   1.5095026      5.4255914      2434.8444     -2.5176683      317.38959      0.216924     
     13500   1.518051       5.1264763      2440.3871     -2.5591088      317.61246      0.21538295   
     13600   1.5108955      4.7093532      2453.5286     -2.6213677      317.74267      0.218717045   
     13700   1.4902504      4.9383742      2437.4354     -2.64358        259.66923      0.18590188   
     13800   1.4735356      5.0254119      2432.9466     -2.6720544      260.15893      0.1846643    
     13900   1.4776495      5.2017631      2421.4071     -2.6707677      260.44367      0.18345852   
     14000   1.4615079      5.1581568      2425.2518     -2.6928054      260.54201      0.18225739   
     14100   1.4690064      5.1285646      2424.0421     -2.6755069      260.95982      0.18107952   
     14200   1.5140281      4.6631607      2437.9367     -2.6686196      261.24128      0.17993893   
     14300   1.5214694      4.8478756      2437.434      -2.6201651      261.27141      0.17880966   
     14400   1.4948546      5.0602168      2440.5555     -2.5875477      261.29556      0.17768014   
     14500   1.5196589      5.0256408      2444.0885     -2.5683488      261.75608      0.17655292   
     14600   1.5137409      4.9725313      2452.383      -2.5664045      261.82739      0.1754567    
     14700   1.4862761      4.7777958      2466.0058     -2.5884064      262.19645      0.17438748   
     14800   1.5479382      5.0431731      2442.2015     -2.5265134      262.85064      0.17335275   
     14900   1.5545634      5.2421517      2434.7016     -2.5027619      263.31103      0.17234036   
     15000   1.4849804      4.9073304      2460.9702     -2.5787133      263.08149      0.17135761   
     15100   1.5039365      4.734071       2457.8269     -2.594284       263.31175      0.17038336        15200   1.4920116      4.9200103      2446.6215     -2.611779       321.87849      0.19283764   
     15300   1.4781203      4.8002622      2451.8075     -2.6385009      322.53202      0.19169793   
     15400   1.4851577      4.7398221      2449.8196     -2.6431834      323.21445      0.19063689   
     15500   1.473846       5.0583408      2440.6074     -2.6244752      323.96071      0.18960115   
     15600   1.5128234      5.0418447      2435.2138     -2.6046314      324.47896      0.18860727   
     15700   1.4996969      5.0834242      2437.6187     -2.6050699      324.58348      0.18763652   
     15800   1.5076555      5.238435       2430.7516     -2.5836961      324.2107       0.186629     
     15900   1.4751629      5.1439758      2443.7846     -2.6069721      324.73394      0.18563873   
     16000   1.4389644      4.8095496      2465.3645     -2.6461184      324.41819      0.18465986   
     16100   1.5088826      4.7745265      2451.192      -2.6014294      324.54496      0.18367863   
     16200   1.5394036      5.0227446      2437.6702     -2.5592323      324.66554      0.1826705    
     16300   1.4951761      5.1449992      2443.7433     -2.570192       324.59678      0.18167042   
     16400   1.5140566      4.948679       2445.6585     -2.5740911      324.93832      0.18067674   
     16500   1.5097317      4.770472       2453.0616     -2.6039374      325.04031      0.17969959   
     16600   1.4963033      5.0472061      2439.6052     -2.5954032      325.47964      0.17873334   
     16700   1.5334008      5.0674069      2429.1195     -2.5864313      325.7794       0.17778157   
     16800   1.4618434      4.8385531      2450.7384     -2.6528724      326.09933      0.17685095   
     16900   1.4992197      4.722074       2444.4328     -2.6487033      326.27708      0.17594515   
     17000   1.494551       4.9187156      2437.6042     -2.6448667      326.66765      0.17506064   
     17100   1.4959418      5.0246224      2431.6606     -2.6350147      327.01089      0.17418056   
     17200   1.5079853      5.0633392      2432.1714     -2.6269968      326.41436      0.1732751    
     17300   1.5128884      5.1801231      2426.5406     -2.593795       326.71376      0.17236907   
     17400   1.5111576      4.9027918      2442.6564     -2.6084863      326.7654       0.17146824   
     17500   1.5061231      4.8841345      2449.4238     -2.5988296      326.54362      0.17056418   
     17600   1.4871358      4.7768806      2464.0939     -2.6052841      326.47889      0.16965047   
     117700   1.5559245      4.9721897      2444.3965     -2.5291739      271.14907      0.1501954    
     17800   1.5044613      4.9993035      2453.6967     -2.5673047      271.33088      0.14961001   
     17900   1.5460311      5.3266444      2426.1692     -2.5232909      271.94711      0.1490313    
     18000   1.5145509      5.1221782      2435.1705     -2.5779064      271.84774      0.14846042   
     18100   1.4618726      4.6917137      2454.5292     -2.6635874      272.06584      0.1478933    
     18200   1.4479794      4.7501189      2453.4817     -2.6924102      272.1505       0.14733424   
     18300   1.4745467      5.0540732      2432.4567     -2.6619988      272.27254      0.14676839   
     18400   1.5085857      4.9006761      2429.3578     -2.6566718      272.37534      0.146194          18500   1.5195039      5.0250201      2437.2002     -2.5809859      186.29928      0.12834063   
     18600   1.5047532      4.92926        2442.0223     -2.60914        186.76619      0.12797419   
     18700   1.5123726      5.1159859      2431.0552     -2.6008885      187.12544      0.12761945   
     18800   1.4786334      4.7699125      2449.6416     -2.6550906      187.34464      0.1272762    
     18900   1.4477056      5.1037263      2444.4775     -2.6464834      187.78894      0.12693087   
     19000   1.4933962      5.1669429      2433.5509     -2.6114114      187.92589      0.12659449   
     19100   1.524043       5.1688571      2426.1946     -2.5850438      188.1204       0.12625317   
     19200   1.4884164      5.0570667      2441.2372     -2.6078547      188.21936      0.12591331   
     19300   1.5298231      4.9903857      2439.2923     -2.5818128      188.19619      0.12556707   
     19400   1.4893983      4.7855308      2458.7851     -2.6048232      188.48531      0.12521669   
     19500   1.5058042      4.9260258      2454.6088     -2.5682773      188.84045      0.12487807   
     19600   1.4768902      4.9183044      2452.3914     -2.6219248      330.87496      0.15414003   
     19700   1.5316655      5.1290731      2428.4363     -2.5802068      331.36644      0.15342833   
     19800   1.5293987      5.0355486      2433.402      -2.5965192      331.03817      0.15271571   
     19900   1.5045328      4.9666959      2439.9622     -2.6135241      331.02948      0.15199798   
     20000   1.4895118      4.985624       2442.9079     -2.6193184      331.45834      0.15128537   
Loop time of 117.729 on 1 procs for 20000 steps with 2048 atoms

Performance: 73388.915 tau/day, 169.882 timesteps/s, 347.918 katom-step/s
99.9% CPU use with 1 MPI tasks x 1 OpenMP threads

MPI task timing breakdown:
Section |  min time  |  avg time  |  max time  |%varavg| %total
---------------------------------------------------------------
Pair    | 90.465     | 90.465     | 90.465     |   0.0 | 76.84
Neigh   | 20.393     | 20.393     | 20.393     |   0.0 | 17.32
Comm    | 1.6209     | 1.6209     | 1.6209     |   0.0 |  1.38
Output  | 0.04442    | 0.04442    | 0.04442    |   0.0 |  0.04
Modify  | 4.6075     | 4.6075     | 4.6075     |   0.0 |  3.91
Other   |            | 0.5979     |            |       |  0.51

Nlocal:           2048 ave        2048 max        2048 min
Histogram: 1 0 0 0 0 0 0 0 0 0
Nghost:           3762 ave        3762 max        3762 min
Histogram: 1 0 0 0 0 0 0 0 0 0
Neighs:          76932 ave       76932 max       76932 min
Histogram: 1 0 0 0 0 0 0 0 0 0

Total # of neighbors = 76932
Ave neighs/atom = 37.564453
Neighbor list builds = 3560
Dangerous builds = 98
unfix integrate1
unfix m_MSD

# Output the RDF Data to the Dump Folder
fix integrate2 all nve
fix 1 all ave/time 100 10 1000 c_RDF[*] file RDF_Sim${sim_run}.data mode vector
fix 1 all ave/time 100 10 1000 c_RDF[*] file RDF_Sim2.data mode vector
fix m_MSD Kr vector 1 c_MSD[4]

variable MSD_Slope equal slope(f_m_MSD)/6/(1*${dt})
variable MSD_Slope equal slope(f_m_MSD)/6/(1*0.005)

# Dump the files for the positions of the Atoms every 100 Frames
dump            myDump1 all custom 100 Dumpfiles/_*.dump id type element x y z vx vy vz fx fy fz
dump_modify 	myDump1 element Kr

# Run the Simulation
run 80000
Generated 0 of 0 mixed pair_coeff terms from geometric mixing rule
Per MPI rank memory allocation (min/avg/max) = 4.153 | 4.153 | 4.153 Mbytes
   Step          Temp          Press          Volume         TotEng        c_MSD[4]     v_MSD_Slope  
     20000   1.4895118      4.985624       2442.9079     -2.6193184      331.45834      3.3333333e+21
     20100   1.4903645      4.9668984      2442.9079     -2.6183251      332.38412      0.34162825   
     20200   1.4770794      5.0795854      2442.9079     -2.6184758      332.50391      0.18693451   
     20300   1.4872763      4.9510989      2442.9079     -2.6191361      332.82564      0.12495324   
     20400   1.4945931      4.9658374      2442.9079     -2.6192794      332.51984      0.084831057  
     20500   1.463165       5.1220726      2442.9079     -2.6198854      332.74701      0.054070845  
     20600   1.4881781      4.9737903      2442.9079     -2.6193265      332.92023      0.047156663  
     20700   1.5077738      4.8636922      2442.9079     -2.6188039      332.95813      0.040342108  
     20800   1.5099417      4.8931061      2442.9079     -2.6194253      333.18796      0.040891989  
     20900   1.4696582      5.1393452      2442.9079     -2.6186749      333.24556      0.042155725  
     21000   1.4881046      4.9888437      2442.9079     -2.6198283      333.66061      0.043570859  
     21100   1.4548012      5.1805906      2442.9079     -2.6192202      333.17283      0.041157717  
     21200   1.5048786      4.8882314      2442.9079     -2.6188261      333.28502      0.036198123  
     21300   1.483546       5.0147427      2442.9079     -2.6195425      333.39122      0.033227542  
     21400   1.4744788      5.0638213      2442.9079     -2.6195701      334.28549      0.035995428  
     21500   1.5049705      4.9268929      2442.9079     -2.6188158      334.78334      0.042243274  
     21600   1.4876881      5.0027757      2442.9079     -2.6180361      334.48286      0.046630446  
     21700   1.4949626      4.9803772      2442.9079     -2.6187246      334.33103      0.046931767  
     21800   1.4978816      4.933984       2442.9079     -2.6197699      334.30001      0.045858554  
     21900   1.4846773      4.9910082      2442.9079     -2.6198875      334.40994      0.044375773  
     22000   1.4863671      5.0174946      2442.9079     -2.6185031      334.80368      0.043951367  
     22100   1.5016694      4.9139993      2442.9079     -2.6190506      334.75159      0.043946131  
     22200   1.4817029      5.0156822      2442.9079     -2.6197748      334.83306      0.042792848  
     22300   1.5154404      4.7849245      2442.9079     -2.6187815      335.08499      0.043049884  
     22400   1.4955299      4.9629729      2442.9079     -2.61889        335.43997      0.043478027  
     22500   1.5038709      4.9286088      2442.9079     -2.6183184      335.56374      0.043750192  
     22600   1.5032956      4.9149314      2442.9079     -2.6186797      335.98682      0.044435978  
     22700   1.5201136      4.7859974      2442.9079     -2.6194332      336.5483       0.046290799  
     22800   1.4691083      5.0803144      2442.9079     -2.6201441      336.63714      0.048099489  
     22900   1.4913211      4.980737       2442.9079     -2.6190205      336.88028      0.049404592  
     23000   1.4982191      4.9679222      2442.9079     -2.6190402      337.18214      0.050779154  
     23100   1.5204731      4.8016407      2442.9079     -2.619587       337.65752      0.052570849  
     23200   1.4997806      4.8170547      2442.9079     -2.6202421      337.74255      0.054308701  
     23300   1.4900409      5.01701        2442.9079     -2.6183381      338.12652      0.055696566  
     23400   1.4850819      4.9532049      2442.9079     -2.6191777      338.50259      0.057096981  
     23500   1.5134509      4.8304839      2442.9079     -2.6187264      339.07637      0.058826262  
     23600   1.4744767      5.0627457      2442.9079     -2.6188477      339.39116      0.060750562  
     23700   1.4625041      5.253492       2442.9079     -2.6184992      340.07777      0.062768182  
     23800   1.4938341      4.9951678      2442.9079     -2.6184133      340.34978      0.064851804  
     23900   1.4793855      5.0301607      2442.9079     -2.6185176      340.86787      0.067046185  
     24000   1.5003147      4.963573       2442.9079     -2.6183549      341.18621      0.069015354  
     24100   1.4767305      5.0546624      2442.9079     -2.6183723      341.55815      0.070928524  
     24200   1.4573489      5.1664454      2442.9079     -2.6192217      341.31009      0.072532877  
     24300   1.5041653      4.8764406      2442.9079     -2.6194603      341.6582       0.073629199  
     24400   1.5075386      4.8660637      2442.9079     -2.6187871      342.46102      0.074969241  
     24500   1.4779131      5.057944       2442.9079     -2.6184676      343.0395       0.076726061  
     24600   1.4858245      4.968229       2442.9079     -2.6192456      343.11394      0.078228285  
     24700   1.4970964      4.970123       2442.9079     -2.6186572      343.30487      0.079412809  
     24800   1.4869942      5.0617931      2442.9079     -2.6185159      343.47957      0.08036709   
     24900   1.4780088      5.0199079      2442.9079     -2.6187564      344.09186      0.081421394  
     25000   1.5037497      4.8247121      2442.9079     -2.6205159      344.57265      0.082576105  
     25100   1.4927744      4.9816245      2442.9079     -2.6182012      344.70828      0.083667281  
     25200   1.5269061      4.7325315      2442.9079     -2.619383       344.9627       0.084591976  
     25300   1.4985213      4.9100783      2442.9079     -2.618065       345.46794      0.085512905  
     25400   1.4789238      5.0932147      2442.9079     -2.6189551      345.83326      0.086536153  
     25500   1.4624694      5.16527        2442.9079     -2.6192117      346.44206      0.087403888  
     25600   1.4964079      4.9432628      2442.9079     -2.6195238      347.04275      0.088463278  
     25700   1.498587       4.9353139      2442.9079     -2.6187735      347.20771      0.089539033  
     25800   1.4852291      4.9719666      2442.9079     -2.620148       347.34264      0.090417022  
     25900   1.4837431      4.9836824      2442.9079     -2.6197853      347.5776       0.091183064  
     26000   1.5169506      4.8296576      2442.9079     -2.619595       347.89133      0.091839919  
     26100   1.4956565      4.8657971      2442.9079     -2.6197202      348.2617       0.092462552  
     26200   1.4833502      4.998362       2442.9079     -2.6195112      348.60229      0.093161874  
     26300   1.5012607      4.9122323      2442.9079     -2.6192389      348.68295      0.09374815   
     26400   1.5041755      4.8931701      2442.9079     -2.6176983      349.07208      0.094190063  
     26500   1.4797552      5.0391318      2442.9079     -2.619737       349.17813      0.094624583  
     26600   1.4797858      5.0457229      2442.9079     -2.6195671      349.26735      0.094869633  
     26700   1.5050648      4.8906659      2442.9079     -2.619148       349.74282      0.095171381  
     26800   1.4878473      4.9821655      2442.9079     -2.6195442      350.12071      0.095472239  
     26900   1.5089845      4.8333159      2442.9079     -2.6185669      350.06755      0.095685773  
     27000   1.4991824      4.9196155      2442.9079     -2.6196891      350.39535      0.095814858  
     27100   1.5144832      4.829379       2442.9079     -2.6198191      350.32421      0.095897062  
     27200   1.4920095      5.0532367      2442.9079     -2.6185102      350.33703      0.095806278  
     27300   1.4864761      5.0082704      2442.9079     -2.6181292      350.65007      0.095644027  
     27400   1.4855045      5.0156736      2442.9079     -2.6177166      350.78144      0.095563511  
     27500   1.4735202      5.1305546      2442.9079     -2.6182804      351.10144      0.095415539  
     27600   1.4913919      4.9383561      2442.9079     -2.6193394      351.3497       0.095276607  
     27700   1.5067485      4.8950407      2442.9079     -2.6184748      351.85563      0.095234429  
     27800   1.4901992      4.9068424      2442.9079     -2.6192156      351.78371      0.095116922  
     27900   1.5041839      4.9154292      2442.9079     -2.619369       352.22889      0.095010587  
     28000   1.470373       5.100696       2442.9079     -2.6196774      352.42803      0.094937143  
     28100   1.4918492      4.9968469      2442.9079     -2.6187657      352.86345      0.094830749  
     28200   1.4925625      5.0464414      2442.9079     -2.6184331      353.14258      0.094776626  
     28300   1.4922688      4.9101154      2442.9079     -2.6191467      353.05899      0.094653216  
     28400   1.4939431      4.9071198      2442.9079     -2.6191899      353.29506      0.094498162  
     28500   1.5089099      4.8674531      2442.9079     -2.6195919      353.60113      0.094372973  
     28600   1.5206763      4.7837397      2442.9079     -2.619192       353.68208      0.094185224  
     28700   1.5201484      4.7895105      2442.9079     -2.6187598      354.20729      0.094034397  
     28800   1.5133638      4.8426316      2442.9079     -2.6195206      354.75421      0.093998027  
     28900   1.4960228      4.9409832      2442.9079     -2.6194494      354.94136      0.093977577  
     29000   1.4796097      5.0650273      2442.9079     -2.6196534      355.57121      0.093968231  
     29100   1.4838884      4.9926168      2442.9079     -2.6190099      355.68209      0.093991606  
     29200   1.4970065      4.8922052      2442.9079     -2.6186011      356.10079      0.094004657  
     29300   1.4922205      4.935572       2442.9079     -2.6186782      356.23167      0.094003065  
     29400   1.4880075      5.0236881      2442.9079     -2.6192961      356.69036      0.094014243  
     29500   1.4874419      5.0152208      2442.9079     -2.6183446      357.16384      0.094075561  
     29600   1.4760524      5.0408874      2442.9079     -2.618841       357.6608       0.094169225  
     29700   1.4768721      5.0042429      2442.9079     -2.6193408      357.94242      0.094269502  
     29800   1.503527       4.9411562      2442.9079     -2.6186983      358.45964      0.094388767  
     29900   1.473122       5.0643123      2442.9079     -2.6184512      358.86894      0.094529627  
     30000   1.489192       4.9780655      2442.9079     -2.6197876      359.15208      0.094712786  
     30100   1.4992808      4.8871149      2442.9079     -2.6192174      359.29802      0.09483212   
     30200   1.5133505      4.8218773      2442.9079     -2.6199777      359.74208      0.094959663  
     30300   1.5089693      4.871078       2442.9079     -2.6191369      359.83421      0.095069186  
     30400   1.4785358      5.0652223      2442.9079     -2.6188248      360.44343      0.095204361  
     30500   1.5096094      4.8755199      2442.9079     -2.6181702      360.79514      0.095345431  
     30600   1.5086543      4.821814       2442.9079     -2.6202444      360.45506      0.095425618  
     30700   1.4825346      4.9866018      2442.9079     -2.6189761      360.57155      0.095442941  
     30800   1.5150492      4.8539844      2442.9079     -2.6190309      360.71767      0.095469597  
     30900   1.4994495      4.9166481      2442.9079     -2.6197579      360.97768      0.095444336  
     31000   1.4984474      4.8782315      2442.9079     -2.6183812      361.48042      0.095421576  
     31100   1.5110239      4.8147899      2442.9079     -2.6191282      361.80421      0.095426522  
     31200   1.4815165      5.0188481      2442.9079     -2.6186694      361.52384      0.095414317  
     31300   1.501516       4.8700502      2442.9079     -2.6192227      362.03779      0.095386404  
     31400   1.5276803      4.7160527      2442.9079     -2.6192003      361.90734      0.09531574   
     31500   1.4979761      4.9306135      2442.9079     -2.619229       362.10594      0.095210896  
     31600   1.4890835      4.9954061      2442.9079     -2.619734       362.3133       0.095102481  
     31700   1.5162683      4.8204514      2442.9079     -2.6190328      362.93117      0.095016372  
     31800   1.4959793      4.9191313      2442.9079     -2.6194215      363.2593       0.094974946  
     31900   1.5243076      4.7564975      2442.9079     -2.6205345      363.58821      0.094922285  
     32000   1.4986634      4.9087389      2442.9079     -2.6190704      363.89155      0.094884136  
     32100   1.4860856      4.9650848      2442.9079     -2.6202854      363.77136      0.094823715  
     32200   1.5001359      4.92249        2442.9079     -2.6185396      364.0195       0.094726063  
     32300   1.5231342      4.7751858      2442.9079     -2.6191573      364.19145      0.094631326  
     32400   1.5016845      4.9564344      2442.9079     -2.6187029      364.40118      0.094535136  
     32500   1.4803021      5.0661476      2442.9079     -2.6182187      364.70717      0.094418488  
     32600   1.4908076      5.0039254      2442.9079     -2.6193695      365.06272      0.094330707  
     32700   1.4927561      4.9569756      2442.9079     -2.6195036      365.48378      0.094256339  
     32800   1.5111493      4.8313431      2442.9079     -2.6183783      365.80208      0.094194947  
     32900   1.4834393      5.070385       2442.9079     -2.6197369      366.07475      0.094142064  
     33000   1.4891841      5.0010738      2442.9079     -2.6183077      366.45434      0.094092948  
     33100   1.4830277      5.0381766      2442.9079     -2.6193268      366.49019      0.094045677  
     33200   1.47221        5.1203762      2442.9079     -2.618425       366.62236      0.093977761  
     33300   1.4887759      4.9998564      2442.9079     -2.6191195      366.91908      0.093887787  
     33400   1.4932639      4.9790212      2442.9079     -2.6198243      366.98707      0.093813498  
     33500   1.5056344      4.855999       2442.9079     -2.6202123      366.88265      0.093699001  
     33600   1.5061996      4.8757591      2442.9079     -2.6183712      367.02483      0.093567042  
     33700   1.4892342      4.9395511      2442.9079     -2.6197132      367.34187      0.093422632  
     33800   1.502107       4.9553181      2442.9079     -2.6192666      367.71219      0.093298114  
     33900   1.5130177      4.8374385      2442.9079     -2.6195362      367.75643      0.093181165  
     34000   1.4746659      5.0785598      2442.9079     -2.6184047      368.16722      0.093059952  
     34100   1.4946497      4.9353076      2442.9079     -2.6185844      368.12142      0.092932809  
     34200   1.5112062      4.8669869      2442.9079     -2.619372       368.12236      0.092780339  
     34300   1.4976991      4.9344797      2442.9079     -2.6187878      368.3006       0.092607998  
     34400   1.51285        4.8544159      2442.9079     -2.6198419      368.77085      0.092448811  
     34500   1.4930098      4.9907204      2442.9079     -2.6191036      369.04325      0.092299854  
     34600   1.5004208      4.8927496      2442.9079     -2.6198615      370.03849      0.092193669  
     34700   1.5146718      4.8718172      2442.9079     -2.6185859      370.41836      0.092139429  
     34800   1.5052072      4.8814972      2442.9079     -2.6189356      370.75387      0.092088746  
     34900   1.4712833      5.1442507      2442.9079     -2.6188578      371.33842      0.092068884  
     35000   1.5001185      4.9282607      2442.9079     -2.6184219      371.84704      0.092063749  
     35100   1.504716       4.8752646      2442.9079     -2.6186834      372.01522      0.092067017  
     35200   1.5065879      4.8791394      2442.9079     -2.6188437      371.96706      0.092047135  
     35300   1.4817528      4.9851329      2442.9079     -2.6179802      372.12448      0.092008876  
     35400   1.4992028      4.9381447      2442.9079     -2.6187276      372.46658      0.091967014  
     35500   1.4941937      4.9509161      2442.9079     -2.6195543      372.94063      0.091941369  
     35600   1.4962254      4.9116228      2442.9079     -2.6191826      373.1636       0.091918399  
     35700   1.5017907      4.8993224      2442.9079     -2.6188994      373.92048      0.091927138  
     35800   1.4810271      5.0550769      2442.9079     -2.6187934      374.10517      0.091949449  
     35900   1.4642494      5.1345394      2442.9079     -2.6193421      374.73068      0.091973763  
     36000   1.4835989      5.0102584      2442.9079     -2.6192352      374.72067      0.091992262  
     36100   1.4785434      5.0516552      2442.9079     -2.6189534      375.50259      0.092035095  
     36200   1.4825931      5.0787604      2442.9079     -2.6188124      375.79499      0.092084063  
     36300   1.4748979      5.0965007      2442.9079     -2.6185672      375.86963      0.092130993  
     36400   1.4877315      5.0253512      2442.9079     -2.6190309      376.05447      0.092150277  
     36500   1.4668019      5.1290163      2442.9079     -2.6195923      376.03466      0.09216421   
     36600   1.5011842      4.9150934      2442.9079     -2.619194       376.33096      0.092165961  
     36700   1.468932       5.1073925      2442.9079     -2.6185692      376.52699      0.092168991  
     36800   1.4971121      4.9474405      2442.9079     -2.6189514      376.7967       0.09217245   
     36900   1.5152942      4.8793349      2442.9079     -2.6192789      376.71077      0.092165911  
     37000   1.4835894      5.0826371      2442.9079     -2.6187738      377.01755      0.092147407  
     37100   1.4474324      5.2191498      2442.9079     -2.620017       377.52838      0.092129768  
     37200   1.5028671      4.9117232      2442.9079     -2.6189732      377.34404      0.092106831  
     37300   1.49963        4.9338909      2442.9079     -2.6184764      377.64574      0.092068513  
     37400   1.5033066      4.9089269      2442.9079     -2.6192101      378.03323      0.092041889  
     37500   1.5022726      4.8580688      2442.9079     -2.6190131      377.99901      0.092012952  
     37600   1.500479       4.9675212      2442.9079     -2.6203079      378.53711      0.091975187  
     37700   1.4947535      4.9887317      2442.9079     -2.6182692      378.56664      0.091937007  
     37800   1.5048781      4.9531097      2442.9079     -2.6181944      378.89912      0.091903974  
     37900   1.4748934      5.0565924      2442.9079     -2.6194649      379.42296      0.091880012  
     38000   1.4814694      5.0612833      2442.9079     -2.6193716      379.62864      0.091864412  
     38100   1.4770589      5.0097459      2442.9079     -2.619642       379.71427      0.091840885  
     38200   1.5077333      4.8553943      2442.9079     -2.6190881      380.02601      0.091811959  
     38300   1.4893984      4.9455378      2442.9079     -2.6194586      380.45185      0.091784578  
     38400   1.4773609      5.0567129      2442.9079     -2.6203324      380.23243      0.091749469  
     38500   1.4849886      5.057078       2442.9079     -2.6191057      380.3788       0.091696157  
     38600   1.5008291      4.9887733      2442.9079     -2.6191687      380.85845      0.091656278  
     38700   1.4979445      4.8775952      2442.9079     -2.6197207      380.86266      0.091605812  
     38800   1.4828184      5.0303938      2442.9079     -2.6184957      380.78417      0.09153579   
     38900   1.5056444      4.8370107      2442.9079     -2.6195856      380.74107      0.091457438  
     39000   1.4871792      4.9571113      2442.9079     -2.6198979      381.343        0.091385476  
     39100   1.4984803      4.9307942      2442.9079     -2.6193218      381.62427      0.09132578   
     39200   1.4858753      4.9909006      2442.9079     -2.6196692      381.67991      0.091252797  
     39300   1.4862179      4.9480388      2442.9079     -2.6190725      381.93461      0.091174989  
     39400   1.5149265      4.8499177      2442.9079     -2.6193655      382.26475      0.091099648  
     39500   1.4807249      5.0288732      2442.9079     -2.618936       382.33009      0.091023197  
     39600   1.480349       5.0412985      2442.9079     -2.6183583      382.86166      0.090950837  
     39700   1.4987574      4.9362357      2442.9079     -2.6188793      382.79806      0.090882846  
     39800   1.5079441      4.8565708      2442.9079     -2.6180761      382.93824      0.090800889  
     39900   1.5195424      4.7984173      2442.9079     -2.619374       383.23033      0.0907208    
     40000   1.4675667      5.1148743      2442.9079     -2.6181743      383.44822      0.09064448   
     40100   1.5219399      4.7618037      2442.9079     -2.6185356      383.50355      0.090559261  
     40200   1.5001697      4.8818508      2442.9079     -2.6194639      384.09452      0.090480069  
     40300   1.5042566      4.8993071      2442.9079     -2.6191373      384.3569       0.090410252  
     40400   1.4905607      4.9679369      2442.9079     -2.619067       384.72525      0.090347431  
     40500   1.4919529      5.028061       2442.9079     -2.6191231      384.88669      0.090285239  
     40600   1.4898692      5.0219712      2442.9079     -2.6193795      385.05072      0.090223032  
     40700   1.4764072      5.0535226      2442.9079     -2.6183496      384.84464      0.090144494  
     40800   1.5190051      4.8202889      2442.9079     -2.6202555      385.09291      0.090053837  
     40900   1.5381103      4.7056802      2442.9079     -2.6194098      385.20731      0.089965666  
     41000   1.5234013      4.8484988      2442.9079     -2.6196526      385.14149      0.089872192  
     41100   1.4960463      4.9503934      2442.9079     -2.6190315      385.37675      0.089769489  
     41200   1.50368        4.8982215      2442.9079     -2.6196614      385.56676      0.089667559  
     41300   1.476545       5.0718725      2442.9079     -2.6195037      385.69034      0.089557949  
     41400   1.4866029      5.0291582      2442.9079     -2.6196422      385.91151      0.089450305  
     41500   1.4795829      5.0720032      2442.9079     -2.6186317      386.27529      0.089341968  
     41600   1.4718716      5.1049355      2442.9079     -2.6188026      386.30691      0.089238874  
     41700   1.4962819      4.9973535      2442.9079     -2.6194715      386.84973      0.089139874  
     41800   1.4882058      5.0515282      2442.9079     -2.6190829      387.4303       0.089051606  
     41900   1.4966838      4.9023425      2442.9079     -2.6189994      387.95546      0.088986608  
     42000   1.5007253      4.9272127      2442.9079     -2.6184848      388.43162      0.088929818  
     42100   1.5061505      4.8771271      2442.9079     -2.6189106      388.60246      0.088875333  
     42200   1.4897982      4.9575825      2442.9079     -2.6194257      388.86361      0.088826003  
     42300   1.4866846      4.9660163      2442.9079     -2.6196604      389.08662      0.088769911  
     42400   1.5181925      4.8421792      2442.9079     -2.6185819      389.84805      0.088726757  
     42500   1.5107876      4.9001672      2442.9079     -2.6193655      389.99482      0.08869344   
     42600   1.4936004      4.9870268      2442.9079     -2.618951       390.56332      0.088660294  
     42700   1.5002057      4.9098041      2442.9079     -2.6194604      390.41511      0.088628753  
     42800   1.476065       5.0558654      2442.9079     -2.6187742      390.90581      0.088596471  
     42900   1.4919427      4.9964167      2442.9079     -2.618987       391.56363      0.088569862  
     43000   1.5196749      4.8096861      2442.9079     -2.6184047      391.56914      0.088554354  
     43100   1.5023575      4.9086202      2442.9079     -2.6192233      392.11481      0.088536862  
     43200   1.4856656      5.0007278      2442.9079     -2.6186499      392.86642      0.088529563  
     43300   1.4881956      5.0500261      2442.9079     -2.6179598      393.16989      0.088533272  
     43400   1.4796038      4.9865054      2442.9079     -2.6196556      393.20635      0.088536604  
     43500   1.4831357      5.0373807      2442.9079     -2.6195732      393.20517      0.088522625  
     43600   1.4918418      4.9315281      2442.9079     -2.6193315      393.91284      0.088519545  
     43700   1.5176989      4.7998225      2442.9079     -2.6187149      394.26451      0.08852928   
     43800   1.4994547      4.9231188      2442.9079     -2.6183882      394.58966      0.088534679  
     43900   1.5073682      4.8525269      2442.9079     -2.6196411      395.20093      0.088552002  
     44000   1.4781095      5.0485974      2442.9079     -2.618836       395.3149       0.088570668  
     44100   1.4438489      5.2897889      2442.9079     -2.6183367      395.89766      0.088592055  
     44200   1.4776627      5.0859572      2442.9079     -2.6193286      395.95324      0.088616765  
     44300   1.4557024      5.2158483      2442.9079     -2.6186161      396.11207      0.08863271   
     44400   1.4693528      5.09247        2442.9079     -2.6195702      396.12853      0.088647506  
     44500   1.4736281      5.0607493      2442.9079     -2.6187403      396.16925      0.088648749  
     44600   1.463113       5.1054251      2442.9079     -2.6184945      396.08685      0.088642165  
     44700   1.5017492      4.9107325      2442.9079     -2.619539       396.06291      0.088624708  
     44800   1.4990886      4.9055563      2442.9079     -2.6194029      395.99882      0.088597233  
     44900   1.4770678      5.0531349      2442.9079     -2.6197056      395.82642      0.088560771  
     45000   1.4798211      5.022264       2442.9079     -2.6192099      396.05292      0.08851397   
     45100   1.5215158      4.7825129      2442.9079     -2.6188745      396.67897      0.088470852  
     45200   1.4835154      5.0209602      2442.9079     -2.6194725      396.90487      0.08843888   
     45300   1.4924242      5.0002155      2442.9079     -2.6186244      397.31074      0.088406771  
     45400   1.5120445      4.8694755      2442.9079     -2.6191448      397.49396      0.088380911  
     45500   1.482135       5.0089311      2442.9079     -2.6193251      397.87723      0.088353483  
     45600   1.5047907      4.9118172      2442.9079     -2.6190556      397.98983      0.088324415  
     45700   1.474475       5.1391687      2442.9079     -2.6187348      398.009        0.088288885  
     45800   1.528588       4.7497036      2442.9079     -2.6194489      398.27473      0.088253839  
     45900   1.4781813      5.0363359      2442.9079     -2.6195242      398.29392      0.088213374  
     46000   1.5119005      4.8140548      2442.9079     -2.6191213      398.72438      0.088171203  
     46100   1.4988438      4.9253158      2442.9079     -2.6189794      399.28248      0.088140092  
     46200   1.4757066      5.0688362      2442.9079     -2.6183593      399.80048      0.088117051  
     46300   1.505635       4.9002933      2442.9079     -2.6182788      400.31067      0.08810555   
     46400   1.5118779      4.8631902      2442.9079     -2.6186057      400.34362      0.088093068  
     46500   1.5032947      4.9266805      2442.9079     -2.6192824      400.36276      0.088073303  
     46600   1.491662       5.0130716      2442.9079     -2.6197105      400.61749      0.088047216  
     46700   1.497237       4.9388239      2442.9079     -2.619418       400.83444      0.088024599  
     46800   1.4774831      5.0292626      2442.9079     -2.6197815      401.39473      0.088001312  
     46900   1.493708       4.9654297      2442.9079     -2.6205676      401.61168      0.087986959  
     47000   1.491062       4.9572881      2442.9079     -2.6190031      401.66984      0.087967012  
     47100   1.4960631      4.9695236      2442.9079     -2.6178682      401.68776      0.087942918  
     47200   1.499373       4.8943871      2442.9079     -2.6207948      401.70973      0.087911021  
     47300   1.4586405      5.2230456      2442.9079     -2.6194122      402.11404      0.087878846  
     47400   1.4956993      4.9770686      2442.9079     -2.6192322      402.3724       0.087848472  
     47500   1.4930889      4.9958354      2442.9079     -2.6187172      402.79355      0.087819597  
     47600   1.4929491      4.9317194      2442.9079     -2.6190611      403.2916       0.087797816  
     47700   1.5038461      4.8372878      2442.9079     -2.6200555      403.81795      0.087784878  
     47800   1.4715837      5.0596095      2442.9079     -2.6206054      404.03273      0.087771998  
     47900   1.4685865      5.095475       2442.9079     -2.6192895      404.65757      0.087766047  
     48000   1.5069962      4.853354       2442.9079     -2.6182774      404.71342      0.08776043   
     48100   1.4648058      5.1469278      2442.9079     -2.6199128      404.52922      0.087747021  
     48200   1.4959845      4.9514681      2442.9079     -2.620426       405.13238      0.0877309    
     48300   1.4672619      5.1113743      2442.9079     -2.6193146      405.34159      0.087720848  
     48400   1.4918171      4.985502       2442.9079     -2.619764       405.68621      0.087713359  
     48500   1.5064516      4.8215583      2442.9079     -2.6193768      405.63497      0.087699203  
     48600   1.4713473      5.068482       2442.9079     -2.6190232      405.81877      0.087680932  
     48700   1.4876689      4.9783052      2442.9079     -2.6194472      406.64184      0.087670298  
     48800   1.502075       4.9126631      2442.9079     -2.6188589      406.71776      0.087664749  
     48900   1.4913372      4.9704805      2442.9079     -2.6194339      407.0147       0.087656343  
     49000   1.5074874      4.8824482      2442.9079     -2.6200947      406.741        0.087643347  
     49100   1.4992269      4.9000702      2442.9079     -2.6186929      406.7657       0.087622131  
     49200   1.4900354      4.9910957      2442.9079     -2.619309       406.59663      0.087589847  
     49300   1.4802517      5.0806594      2442.9079     -2.6186748      406.4653       0.087550727  
     49400   1.5134854      4.801285       2442.9079     -2.6192495      406.82771      0.08750956   
     49500   1.487496       5.0722994      2442.9079     -2.6184496      407.22344      0.087472113  
     49600   1.5038473      4.8925968      2442.9079     -2.6190237      407.25814      0.08743613   
     49700   1.4861621      4.9914319      2442.9079     -2.6188263      407.59894      0.087398063  
     49800   1.5099871      4.8979953      2442.9079     -2.6196909      407.97141      0.087362684  
     49900   1.4951485      4.9216521      2442.9079     -2.6190987      408.11128      0.087325835  
     50000   1.4841808      5.0428454      2442.9079     -2.6189575      408.5373       0.087291895  
     50100   1.507484       4.8500277      2442.9079     -2.6196704      409.09659      0.087261398  
     50200   1.4884353      4.9504943      2442.9079     -2.6200911      409.01194      0.08723309   
     50300   1.4839443      5.0055795      2442.9079     -2.6198503      409.49997      0.08720508   
     50400   1.4935838      4.9808585      2442.9079     -2.618732       410.00034      0.087180499  
     50500   1.5007255      4.9398755      2442.9079     -2.6193903      410.6016       0.087163423  
     50600   1.4935339      4.973615       2442.9079     -2.6192174      410.7304       0.087149862  
     50700   1.4885839      4.9526867      2442.9079     -2.6202122      410.77833      0.08713098   
     50800   1.4909414      4.9849783      2442.9079     -2.6188613      411.34123      0.087113049  
     50900   1.5037728      4.8398804      2442.9079     -2.619205       411.68186      0.087103513  
     51000   1.5034035      4.8167325      2442.9079     -2.6197517      412.38138      0.087097231  
     51100   1.4735629      5.0531529      2442.9079     -2.6193729      412.31678      0.087091576  
     51200   1.4773548      5.0613426      2442.9079     -2.6187281      412.62133      0.087083801  
     51300   1.501356       4.8750298      2442.9079     -2.6194901      412.50366      0.087071359  
     51400   1.5068607      4.9166238      2442.9079     -2.6195165      413.24161      0.087059591  
     51500   1.499989       4.9405276      2442.9079     -2.6177353      413.61229      0.087055781  
     51600   1.4686054      5.0910993      2442.9079     -2.6184971      414.11053      0.087053064  
     51700   1.4901688      5.0375454      2442.9079     -2.6191265      414.25169      0.087052475  
     51800   1.4912406      5.0185868      2442.9079     -2.6180723      414.43245      0.087048024  
     51900   1.5138369      4.8407174      2442.9079     -2.6193217      414.27013      0.087044386  
     52000   1.5014645      4.9235621      2442.9079     -2.6184861      414.4972       0.087030808  
     52100   1.5018518      4.9230784      2442.9079     -2.6193543      415.27843      0.087026729  
     52200   1.5001984      4.9347526      2442.9079     -2.6188794      415.62521      0.087027948  
     52300   1.4815892      5.0541556      2442.9079     -2.6188417      415.58138      0.087024886  
     52400   1.483117       5.0350543      2442.9079     -2.6192874      415.47556      0.08701635   
     52500   1.4920543      4.8880244      2442.9079     -2.6192903      415.74519      0.087004601  
     52600   1.483926       5.0239544      2442.9079     -2.6188093      416.15593      0.086993859  
     52700   1.5222047      4.7669675      2442.9079     -2.619054       416.59015      0.086987691  
     52800   1.4954911      4.8637684      2442.9079     -2.6192199      416.75939      0.086981438  
     52900   1.4636232      5.1398977      2442.9079     -2.6191216      416.81206      0.086972581  
     53000   1.5042661      4.8642209      2442.9079     -2.619351       417.32838      0.086964865  
     53100   1.488997       4.975369       2442.9079     -2.6201057      417.21874      0.086955514  
     53200   1.4768406      5.0474288      2442.9079     -2.6192519      417.59316      0.08694365   
     53300   1.4855153      5.0087365      2442.9079     -2.61943        418.21971      0.086938571  
     53400   1.5142999      4.8366612      2442.9079     -2.6185977      418.8065       0.086935926  
     53500   1.4563597      5.1688601      2442.9079     -2.6182853      419.35813      0.086943531  
     53600   1.4802485      5.0011376      2442.9079     -2.6189566      419.48198      0.086948891  
     53700   1.5193853      4.8284075      2442.9079     -2.6192295      419.88309      0.086957704  
     53800   1.5161711      4.8049131      2442.9079     -2.6190535      419.93071      0.086965419  
     53900   1.4722842      5.0489544      2442.9079     -2.6195741      419.9102       0.086964146  
     54000   1.492544       4.9509236      2442.9079     -2.6189832      420.36348      0.086964895  
     54100   1.4827357      5.0261044      2442.9079     -2.6179508      420.42987      0.086966838  
     54200   1.4736051      5.0182426      2442.9079     -2.619467       420.71461      0.086966144  
     54300   1.5095285      4.8728076      2442.9079     -2.6189079      421.0749       0.08696568   
     54400   1.5031082      4.8441329      2442.9079     -2.6204444      421.20583      0.086966567  
     54500   1.4620205      5.1850733      2442.9079     -2.6182158      421.58606      0.086966119  
     54600   1.4854462      5.0369268      2442.9079     -2.61945        421.72312      0.086966477  
     54700   1.476155       5.0575592      2442.9079     -2.6190452      421.73554      0.086964077  
     54800   1.5056876      4.9057123      2442.9079     -2.6187025      421.6197       0.08695703   
     54900   1.52425        4.7282401      2442.9079     -2.6193667      422.12961      0.086946545  
     55000   1.4868531      4.9592802      2442.9079     -2.6195561      421.96828      0.086935842  
     55100   1.5160172      4.8420507      2442.9079     -2.6194757      422.23298      0.086919363  
     55200   1.4944685      4.9423455      2442.9079     -2.6187548      422.4484       0.086907501  
     55300   1.4720445      5.1143969      2442.9079     -2.6199336      422.47595      0.086893784  
     55400   1.4776049      5.10332        2442.9079     -2.618681       422.35439      0.086870808  
     55500   1.5122821      4.8459204      2442.9079     -2.6200903      422.51182      0.086846466  
     55600   1.4837043      4.9901601      2442.9079     -2.6192179      422.83526      0.086821407  
     55700   1.4848104      5.0038726      2442.9079     -2.619324       423.2088       0.086799579  
     55800   1.5074332      4.8960917      2442.9079     -2.6190249      423.49552      0.086779067  
     55900   1.4818747      5.0423085      2442.9079     -2.6184975      424.04877      0.086761906  
     56000   1.4791649      5.0373737      2442.9079     -2.6189611      424.67859      0.086749035  
     56100   1.4409058      5.2602592      2442.9079     -2.6197244      424.50802      0.086736057  
     56200   1.4818517      5.0532362      2442.9079     -2.6192791      424.49859      0.086718     
     56300   1.4948081      4.9871844      2442.9079     -2.6196763      424.8235       0.086700085  
     56400   1.4888884      4.9501358      2442.9079     -2.619354       425.35842      0.086682575  
     56500   1.511021       4.8553531      2442.9079     -2.6187801      425.93264      0.086668684  
     56600   1.4892052      5.0044316      2442.9079     -2.6196851      425.97783      0.086657189  
     56700   1.4784292      5.0302044      2442.9079     -2.6186969      426.58805      0.086647819  
     56800   1.4837324      4.9798775      2442.9079     -2.6192178      426.95112      0.086640872  
     56900   1.494323       4.939794       2442.9079     -2.6198503      427.04498      0.086633845  
     57000   1.496543       4.931844       2442.9079     -2.6196043      427.35414      0.086626267  
     57100   1.4700264      5.065075       2442.9079     -2.6194204      427.55068      0.086618482  
     57200   1.4913721      4.9992543      2442.9079     -2.6190134      427.85021      0.086611145  
     57300   1.5008791      4.9087175      2442.9079     -2.6188008      428.0477       0.086604202  
     57400   1.5019504      4.9158636      2442.9079     -2.6192751      428.36956      0.086597409  
     57500   1.4905226      5.0506554      2442.9079     -2.6184028      428.455        0.086589979  
     57600   1.5183598      4.7899849      2442.9079     -2.6196431      429.04306      0.086584434  
     57700   1.4910271      4.9887968      2442.9079     -2.6199647      429.79803      0.086584032  
     57800   1.4721524      5.1162391      2442.9079     -2.6194453      429.7433       0.086583895  
     57900   1.4874588      4.9761246      2442.9079     -2.6188514      430.40156      0.086586095  
     58000   1.49169        4.9843166      2442.9079     -2.619475       431.03517      0.086593424  
     58100   1.4791139      5.0103589      2442.9079     -2.6187748      431.77513      0.086604161  
     58200   1.485617       5.0139376      2442.9079     -2.6191264      432.26405      0.0866215    
     58300   1.5078246      4.8856569      2442.9079     -2.6194219      432.64505      0.086639373  
     58400   1.4746617      5.0650166      2442.9079     -2.6193042      432.64698      0.08665715   
     58500   1.4702353      5.1254749      2442.9079     -2.6187854      432.60171      0.08667068   
     58600   1.500246       4.995997       2442.9079     -2.6187972      432.64446      0.086680081  
     58700   1.4830846      5.0419676      2442.9079     -2.6197667      433.05292      0.086690283  
     58800   1.5092529      4.8581344      2442.9079     -2.619596       433.18359      0.08669932   
     58900   1.4915167      4.9755822      2442.9079     -2.6190017      433.69282      0.086706906  
     59000   1.4982438      4.8870012      2442.9079     -2.6189344      434.08132      0.086718542  
     59100   1.4883585      4.9770016      2442.9079     -2.6199178      434.66687      0.086734146  
     59200   1.4425789      5.2386585      2442.9079     -2.6187568      435.04137      0.086753243  
     59300   1.4779293      5.0359352      2442.9079     -2.6196362      435.2694       0.086771554  
     59400   1.5210525      4.7774207      2442.9079     -2.6195169      435.28646      0.086788645  
     59500   1.4903373      4.9960921      2442.9079     -2.6198139      435.02598      0.086799738  
     59600   1.5057806      4.8510692      2442.9079     -2.6199421      435.01186      0.086805773  
     59700   1.4749563      5.0851118      2442.9079     -2.6183147      435.49886      0.086812244  
     59800   1.4977062      4.908436       2442.9079     -2.6195178      435.82788      0.086818168  
     59900   1.5034039      4.881521       2442.9079     -2.6193002      436.40885      0.086826975  
     60000   1.5118694      4.8527127      2442.9079     -2.6191137      436.93283      0.086840639  
     60100   1.486794       5.0031046      2442.9079     -2.6186724      437.14246      0.086855844  
     60200   1.4626391      5.1938501      2442.9079     -2.6186009      437.2625       0.086867925  
     60300   1.4917975      4.9455092      2442.9079     -2.6185715      437.94137      0.086882327  
     60400   1.509626       4.8534527      2442.9079     -2.6179323      438.64207      0.086903034  
     60500   1.4561916      5.1331629      2442.9079     -2.6196799      438.94912      0.086923099  
     60600   1.4987361      4.8711011      2442.9079     -2.6194444      439.74492      0.086948564  
     60700   1.5047815      4.9306801      2442.9079     -2.6192607      439.9843       0.086976202  
     60800   1.4851335      4.9802931      2442.9079     -2.6187843      440.2028       0.087003466  
     60900   1.4960072      4.9520695      2442.9079     -2.6187421      439.73889      0.08702601   
     61000   1.494088       4.9412277      2442.9079     -2.6192419      440.36986      0.087045136  
     61100   1.509297       4.8153424      2442.9079     -2.6186554      439.98182      0.087063969  
     61200   1.4977276      4.9986015      2442.9079     -2.6192476      440.15466      0.087076433  
     61300   1.485376       5.0114968      2442.9079     -2.6189421      440.82154      0.087091563  
     61400   1.4923353      4.9267513      2442.9079     -2.6189501      441.52036      0.087111598  
     61500   1.4791695      5.0514054      2442.9079     -2.6188897      441.55222      0.087131905  
     61600   1.4870873      4.9285426      2442.9079     -2.6193228      441.70556      0.087149906  
     61700   1.4909265      4.9504779      2442.9079     -2.6194922      442.20166      0.087167726  
     61800   1.4950566      4.9065437      2442.9079     -2.6192273      442.00329      0.0871832    
     61900   1.4556949      5.1924577      2442.9079     -2.6185426      442.43603      0.08719799   
     62000   1.4855507      4.997055       2442.9079     -2.6187073      442.79415      0.087214182  
     62100   1.5079172      4.8657039      2442.9079     -2.6197554      443.38984      0.087232303  
     62200   1.4844771      4.9808741      2442.9079     -2.6185095      443.20213      0.087251779  
     62300   1.5018966      4.8656827      2442.9079     -2.6202744      443.45155      0.087266113  
     62400   1.4709644      5.0623471      2442.9079     -2.6202707      444.23553      0.087283631  
     62500   1.4933845      4.867848       2442.9079     -2.619508       444.17836      0.087301939  
     62600   1.4961073      4.9766748      2442.9079     -2.6191943      444.57546      0.087317365  
     62700   1.4565279      5.1809662      2442.9079     -2.6184318      444.87498      0.087335633  
     62800   1.4776156      5.0474339      2442.9079     -2.6198941      445.14759      0.08735334   
     62900   1.4986462      4.9255044      2442.9079     -2.6186145      445.98529      0.087374443  
     63000   1.4642544      5.1670565      2442.9079     -2.6201116      446.30471      0.08739827   
     63100   1.4798768      5.0233179      2442.9079     -2.618977       446.11606      0.087420433  
     63200   1.5034293      4.9021217      2442.9079     -2.6177863      446.78757      0.087441114  
     63300   1.5066998      4.8721295      2442.9079     -2.6188134      446.92154      0.087462205  
     63400   1.5040115      4.8307943      2442.9079     -2.6195781      447.05564      0.087484426  
     63500   1.4838724      5.0396872      2442.9079     -2.6195407      447.15544      0.087502347  
     63600   1.4663497      5.10595        2442.9079     -2.6189751      447.76417      0.087521516  
     63700   1.513165       4.8052293      2442.9079     -2.6199876      447.75973      0.087541344  
     63800   1.5059952      4.840046       2442.9079     -2.6190222      448.08812      0.087559177  
     63900   1.500274       4.9135086      2442.9079     -2.6192391      448.41698      0.087576498  
     64000   1.4977656      4.8818883      2442.9079     -2.6191347      448.89922      0.087596071  
     64100   1.4900053      4.9829357      2442.9079     -2.6195824      449.05394      0.087617246  
     64200   1.4999074      4.9583934      2442.9079     -2.618895       449.32563      0.087636959  
     64300   1.509261       4.8819645      2442.9079     -2.6192296      449.52873      0.087656668  
     64400   1.4689157      5.1039508      2442.9079     -2.6181199      449.43865      0.087671812  
     64500   1.4846081      5.0365302      2442.9079     -2.6183651      449.76049      0.087689152  
     64600   1.4815493      5.0022705      2442.9079     -2.6191484      449.9329       0.087704916  
     64700   1.4851948      4.9953771      2442.9079     -2.6194233      449.94971      0.087716968  
     64800   1.5024778      4.9252207      2442.9079     -2.6185118      450.40316      0.087727598  
     64900   1.5058629      4.9847816      2442.9079     -2.618704       450.61093      0.087740359  
     65000   1.5199589      4.7828906      2442.9079     -2.6193208      451.07418      0.087752623  
     65100   1.4991909      4.9283562      2442.9079     -2.6199744      451.39519      0.087767204  
     65200   1.5107583      4.8954282      2442.9079     -2.6191129      451.60515      0.087780496  
     65300   1.4929926      4.9635925      2442.9079     -2.6190739      451.56614      0.087793419  
     65400   1.518073       4.8211452      2442.9079     -2.6197832      451.30536      0.087802142  
     65500   1.4581912      5.1572034      2442.9079     -2.6190831      451.67193      0.087807245  
     65600   1.4979195      4.9324183      2442.9079     -2.6188782      451.75502      0.087813094  
     65700   1.5183229      4.8192972      2442.9079     -2.6193663      451.70714      0.087816525  
     65800   1.480373       5.0047603      2442.9079     -2.6194549      451.7633       0.087817309  
     65900   1.4995286      4.887898       2442.9079     -2.6194314      451.61704      0.087814761  
     66000   1.5031111      4.9115194      2442.9079     -2.618592       451.68639      0.087808491  
     66100   1.518272       4.870786       2442.9079     -2.6205054      451.65488      0.087801727  
     66200   1.5127067      4.7931551      2442.9079     -2.6195413      452.14536      0.087793525  
     66300   1.5054065      4.9118889      2442.9079     -2.6182399      452.75435      0.08778891   
     66400   1.4699906      5.0685805      2442.9079     -2.6182336      453.14321      0.087786798  
     66500   1.4894099      4.9353402      2442.9079     -2.6186673      453.85307      0.087787813  
     66600   1.5044545      4.8906931      2442.9079     -2.6190429      453.99637      0.087789544  
     66700   1.4826452      5.0659169      2442.9079     -2.6195102      454.60478      0.087791568  
     66800   1.4984087      4.890247       2442.9079     -2.6190506      454.47607      0.087793534  
     66900   1.4664527      5.1334527      2442.9079     -2.6190412      454.01929      0.087792393  
     67000   1.5096269      4.8872915      2442.9079     -2.6187631      454.52688      0.087786881  
     67100   1.5029534      4.9020042      2442.9079     -2.6188733      454.88196      0.087782978  
     67200   1.4971586      4.9408881      2442.9079     -2.6198142      454.9671       0.08777987   
     67300   1.5074386      4.8559318      2442.9079     -2.6186868      454.92138      0.087773729  
     67400   1.4939333      4.9358909      2442.9079     -2.6194166      455.21217      0.087766027  
     67500   1.4831473      5.0047279      2442.9079     -2.6192053      455.89925      0.087762494  
     67600   1.4714996      5.1222136      2442.9079     -2.6189092      456.16027      0.087759533  
     67700   1.4965425      4.9595576      2442.9079     -2.6190057      456.36344      0.087756255  
     67800   1.5004204      4.8840908      2442.9079     -2.6189209      456.81506      0.087753111  
     67900   1.5123374      4.8005173      2442.9079     -2.6196901      457.65531      0.087754129  
     68000   1.484454       5.0359207      2442.9079     -2.618343       458.21709      0.087757714  
     68100   1.4881024      4.9673803      2442.9079     -2.6194372      458.22207      0.08776242   
     68200   1.4730639      5.1323885      2442.9079     -2.6194629      458.67609      0.087766671  
     68300   1.5139706      4.8593093      2442.9079     -2.6187761      459.04615      0.087772354  
     68400   1.4859755      5.0188511      2442.9079     -2.6185022      458.76627      0.087775676  
     68500   1.4869587      5.0408622      2442.9079     -2.6187356      458.89196      0.087775839  
     68600   1.4700399      5.0831688      2442.9079     -2.6177989      458.85664      0.087774006  
     68700   1.5020839      4.911295       2442.9079     -2.618798       459.42841      0.08777276   
     68800   1.4805428      5.0161428      2442.9079     -2.6186728      459.89896      0.087773811  
     68900   1.5026114      4.8926744      2442.9079     -2.6191863      460.58868      0.087779088  
     69000   1.4798526      5.0617096      2442.9079     -2.6189315      460.28575      0.087782838  
     69100   1.51967        4.7371096      2442.9079     -2.6189012      460.33125      0.08778261   
     69200   1.4989679      4.948521       2442.9079     -2.6192619      460.31564      0.087779906  
     69300   1.5025584      4.9198067      2442.9079     -2.6197289      460.18402      0.087775119  
     69400   1.5015229      4.8590888      2442.9079     -2.619005       460.43067      0.08776818   
     69500   1.4788124      5.0479894      2442.9079     -2.6190369      460.45789      0.087759495  
     69600   1.4683097      5.0910542      2442.9079     -2.6186631      460.15766      0.087748995  
     69700   1.4827528      5.0246861      2442.9079     -2.6189788      460.24297      0.087734083  
     69800   1.4795458      5.046032       2442.9079     -2.6187662      460.20155      0.087718841  
     69900   1.4838474      4.9805246      2442.9079     -2.6184214      460.36938      0.087701268  
     70000   1.4760264      5.0946741      2442.9079     -2.6183029      460.827        0.087685206  
     70100   1.5446338      4.6668872      2442.9079     -2.6182844      461.18469      0.087670945  
     70200   1.5106197      4.8168878      2442.9079     -2.6187496      461.96101      0.087658357  
     70300   1.4864615      4.9932844      2442.9079     -2.6197541      462.51814      0.08764964   
     70400   1.4892939      5.0140381      2442.9079     -2.6193601      462.87981      0.087642732  
     70500   1.4900183      4.9825734      2442.9079     -2.6182506      463.26282      0.087636456  
     70600   1.4860078      5.0285346      2442.9079     -2.6190946      463.13821      0.087629769  
     70700   1.4822146      5.0272116      2442.9079     -2.6197792      463.9116       0.087622908  
     70800   1.4945705      4.915093       2442.9079     -2.6192703      464.10235      0.087617782  
     70900   1.4937904      4.9442822      2442.9079     -2.6200493      464.20522      0.08761137   
     71000   1.4711543      5.0395205      2442.9079     -2.6201679      464.16066      0.087604049  
     71100   1.4690356      5.1302395      2442.9079     -2.6185071      464.36545      0.087595391  
     71200   1.48149        5.0156879      2442.9079     -2.6184466      464.40998      0.087584594  
     71300   1.4944783      4.9219822      2442.9079     -2.6188813      464.68578      0.087574375  
     71400   1.473661       5.1157028      2442.9079     -2.6192016      464.97223      0.087564354  
     71500   1.4916214      4.941355       2442.9079     -2.617815       465.29748      0.087553934  
     71600   1.4871032      4.990432       2442.9079     -2.6199175      465.63436      0.087544068  
     71700   1.5006823      4.9802259      2442.9079     -2.6175899      465.75409      0.08753431   
     71800   1.5131313      4.8381195      2442.9079     -2.6186076      465.68754      0.087522147  
     71900   1.4988878      4.9146926      2442.9079     -2.6197534      466.17013      0.087511203  
     72000   1.4888795      4.9835543      2442.9079     -2.6199668      466.24471      0.087499993  
     72100   1.4948101      5.0207667      2442.9079     -2.6182865      466.5764       0.087489425  
     72200   1.4913048      4.9898335      2442.9079     -2.618067       466.74752      0.087478548  
     72300   1.4680678      5.0912483      2442.9079     -2.6194969      466.88431      0.087467643  
     72400   1.491051       4.9716507      2442.9079     -2.6183453      467.46179      0.087455972  
     72500   1.5043862      4.8828414      2442.9079     -2.6192016      467.68646      0.08744521   
     72600   1.5313796      4.6570862      2442.9079     -2.6204641      468.33108      0.087437396  
     72700   1.5390338      4.646991       2442.9079     -2.619302       468.45058      0.0874303    
     72800   1.5036382      4.8665432      2442.9079     -2.6193192      468.64442      0.087422421  
     72900   1.5173071      4.7768505      2442.9079     -2.6195542      469.08216      0.087414643  
     73000   1.4757205      5.0390279      2442.9079     -2.6190356      469.38371      0.087408466  
     73100   1.4697121      5.0814333      2442.9079     -2.6188786      469.6081       0.087400638  
     73200   1.4545236      5.1470436      2442.9079     -2.6188437      469.62349      0.087392513  
     73300   1.4845003      5.0547944      2442.9079     -2.6190166      469.86854      0.087384272  
     73400   1.4729748      5.0751497      2442.9079     -2.6185592      469.83449      0.087374935  
     73500   1.4895579      4.9196845      2442.9079     -2.6198152      469.64405      0.087362801  
     73600   1.5229185      4.7763533      2442.9079     -2.6180471      469.6968       0.087348415  
     73700   1.5216138      4.8465455      2442.9079     -2.6183455      469.89697      0.087332152  
     73800   1.4984542      4.9042842      2442.9079     -2.6199758      470.17403      0.087317213  
     73900   1.4771379      5.0493549      2442.9079     -2.6192001      470.42989      0.087301883  
[...]
     81700   1.4889851      5.0032241      2442.9079     -2.618592       492.42326      0.086928516  
     81800   1.5223456      4.7730011      2442.9079     -2.6196087      493.01427      0.08692947   
     81900   1.4777692      5.0481007      2442.9079     -2.6177984      493.10904      0.086929443  
     82000   1.4858485      4.9872819      2442.9079     -2.6194474      493.7734       0.086930965  
     82100   1.5157677      4.7948358      2442.9079     -2.61837        494.48341      0.08693517   
     82200   1.4748409      5.084308       2442.9079     -2.6178897      494.54761      0.086939121  
     82300   1.4851102      5.0356676      2442.9079     -2.6189213      494.90354      0.086942812  
     82400   1.4961588      4.9147847      2442.9079     -2.6187737      495.2702       0.086947655  
     82500   1.4887408      4.9977583      2442.9079     -2.6188864      495.08507      0.086951311  
     82600   1.4842563      5.0478887      2442.9079     -2.6174186      495.41929      0.086953771  
     82700   1.4919249      4.97039        2442.9079     -2.6189033      495.54385      0.086956032  
     82800   1.4755735      5.0861518      2442.9079     -2.6178748      496.20212      0.086958726  
     82900   1.4802159      5.0259416      2442.9079     -2.6193959      496.22021      0.086961702  
     83000   1.4816801      5.045874       2442.9079     -2.6196782      496.56061      0.086964742  
     83100   1.4867541      4.9567497      2442.9079     -2.6189891      496.75357      0.086967811  
     83200   1.4961549      4.9530049      2442.9079     -2.6195973      496.85112      0.086970365  
     83300   1.4677758      5.091844       2442.9079     -2.6185627      497.25387      0.086972766  
     83400   1.4933821      4.9412607      2442.9079     -2.6182013      497.70559      0.08697602   
     83500   1.4734117      5.1002228      2442.9079     -2.6185436      497.70973      0.086978828  
     83600   1.4933729      4.9569971      2442.9079     -2.6187532      497.87591      0.086980219  
     83700   1.4730649      5.0729461      2442.9079     -2.6186219      498.16895      0.086981695  
     83800   1.4744873      5.0735011      2442.9079     -2.6180347      498.09416      0.08698226   
     83900   1.5068872      4.9209349      2442.9079     -2.6174008      498.31738      0.086981964  
     84000   1.4938131      4.9664604      2442.9079     -2.619445       498.36287      0.08698149   
     84100   1.4933218      4.9425578      2442.9079     -2.6183029      498.5801       0.086980365  
     84200   1.50596        4.9002102      2442.9079     -2.619059       498.4027       0.086977931  
     84300   1.5008511      4.8846636      2442.9079     -2.6193066      498.5993       0.086973973  
     84400   1.5112501      4.8412208      2442.9079     -2.6189927      498.91351      0.086970764  
     84500   1.5086289      4.8304036      2442.9079     -2.6183318      499.58285      0.086968633  
     84600   1.475308       5.125678       2442.9079     -2.6185338      499.48491      0.086966669  
     84700   1.5035195      4.8938541      2442.9079     -2.6187939      499.76704      0.086963255  
     84800   1.5133847      4.8452766      2442.9079     -2.6185253      500.07927      0.086960695  
     84900   1.4681437      5.0989895      2442.9079     -2.6178998      500.3668       0.086957956  
     85000   1.4847554      5.0576593      2442.9079     -2.6172066      500.42463      0.08695425   
     85100   1.5095012      4.8421667      2442.9079     -2.6189849      500.64271      0.086950541  
     85200   1.4926134      5.0018285      2442.9079     -2.6193132      501.20172      0.086947544  
     85300   1.4967429      4.9484664      2442.9079     -2.6192583      501.59796      0.086945946  
     85400   1.483855       5.0486398      2442.9079     -2.6189794      501.51329      0.086943318  
     85500   1.515013       4.7904495      2442.9079     -2.6175938      501.91331      0.086940226  
     85600   1.5017837      4.96811        2442.9079     -2.6190707      502.74682      0.086938715  
     85700   1.5157149      4.8573537      2442.9079     -2.618929       502.78434      0.08693793   
     85800   1.4875466      5.0134059      2442.9079     -2.6182342      502.78683      0.086936839  
     85900   1.4732875      5.1142261      2442.9079     -2.6184351      502.80588      0.086933805  
     86000   1.5003182      4.8973967      2442.9079     -2.6186084      503.24366      0.086930947  
     86100   1.4839914      5.0055612      2442.9079     -2.6185605      503.3023       0.08692848   
     86200   1.4830482      5.0486495      2442.9079     -2.6176444      503.75706      0.086926356  
     86300   1.4906228      4.9419245      2442.9079     -2.6184909      504.09928      0.086925012  
     86400   1.4890103      5.02295        2442.9079     -2.6186898      504.30045      0.086923531  
     86500   1.5071334      4.8689741      2442.9079     -2.6188561      504.4671       0.086920895  
     86600   1.4846785      5.0004732      2442.9079     -2.6182812      504.48126      0.086918347  
     86700   1.4726492      5.0942087      2442.9079     -2.6193483      504.3901       0.086914301  
     86800   1.49154        4.9893804      2442.9079     -2.6189584      504.72706      0.086909218  
     86900   1.5044         4.8484317      2442.9079     -2.6189434      505.17504      0.086905176  
     87000   1.5000405      4.9318616      2442.9079     -2.6190392      505.52587      0.086901456  
     87100   1.4833586      4.9828812      2442.9079     -2.6184473      505.82841      0.08689794   
     87200   1.5098729      4.8592467      2442.9079     -2.6187912      506.28272      0.086895052  
     87300   1.4917649      4.9481241      2442.9079     -2.6186252      506.37778      0.086891979  
     87400   1.4991368      4.9355575      2442.9079     -2.6192325      506.97033      0.086889842  
     87500   1.5298686      4.7441553      2442.9079     -2.6186779      507.52987      0.086889015  
     87600   1.4633145      5.0863992      2442.9079     -2.6184066      507.90602      0.086889295  
     87700   1.4779546      5.0507915      2442.9079     -2.6189533      508.33016      0.086890069  
     87800   1.487719       4.9169411      2442.9079     -2.619235       508.34795      0.086890294  
     87900   1.4826877      5.0122502      2442.9079     -2.6187195      508.37839      0.086890003  
     88000   1.4811249      5.034764       2442.9079     -2.6174523      508.73081      0.086889108  
     88100   1.4910822      5.0162901      2442.9079     -2.6185418      508.65672      0.086887311  
     88200   1.4773211      5.019292       2442.9079     -2.6184147      509.16506      0.086885192  
     88300   1.4997045      4.9444906      2442.9079     -2.6185485      509.88479      0.086885678  
     88400   1.506041       4.9326417      2442.9079     -2.6186118      510.12097      0.086887273  
     88500   1.4889531      4.931212       2442.9079     -2.6180595      510.4063       0.086887636  
     88600   1.4989819      4.870919       2442.9079     -2.6199543      511.00894      0.086889637  
     88700   1.4932276      4.928349       2442.9079     -2.6194629      510.94154      0.08689081   
     88800   1.5011895      4.9773269      2442.9079     -2.6187315      511.10562      0.086891879  
     88900   1.4846213      5.0290226      2442.9079     -2.6179141      511.86308      0.086893318  
     89000   1.4625612      5.2447691      2442.9079     -2.6181556      512.08196      0.086895651  
     89100   1.5025381      4.8998403      2442.9079     -2.6189059      512.1707       0.086897461  
     89200   1.487428       5.0055588      2442.9079     -2.6192121      512.24673      0.086899033  
     89300   1.5099026      4.8030738      2442.9079     -2.6199328      513.0103       0.086900565  
     89400   1.48953        4.9211464      2442.9079     -2.6188734      513.54453      0.086904081  
     89500   1.4754055      5.1245152      2442.9079     -2.6174647      514.0547       0.08690879   
     89600   1.5233177      4.7867854      2442.9079     -2.6190113      514.58899      0.086913634  
     89700   1.48027        5.0445002      2442.9079     -2.6184735      514.62173      0.086919203  
     89800   1.510908       4.8556519      2442.9079     -2.619731       515.06398      0.086925102  
     89900   1.5210225      4.7536984      2442.9079     -2.6194477      515.42613      0.086931333  
     90000   1.4896216      4.9446301      2442.9079     -2.6183398      515.06066      0.086936277  
     90100   1.4687786      5.1252787      2442.9079     -2.6190115      515.48126      0.08694035   
     90200   1.483271       4.9944038      2442.9079     -2.618609       515.19479      0.086943113  
     90300   1.5143432      4.8338952      2442.9079     -2.6196465      515.34509      0.086945379  
     90400   1.4714653      5.0946012      2442.9079     -2.6187787      515.68111      0.086947623  
     90500   1.4797156      5.0478263      2442.9079     -2.6194361      515.55648      0.086948769  
     90600   1.498285       4.9599575      2442.9079     -2.6184972      515.79891      0.086948802  
     90700   1.5240161      4.7576521      2442.9079     -2.6191697      516.3805       0.086949446  
     90800   1.4621072      5.1658644      2442.9079     -2.6190971      516.47649      0.086950649  
     90900   1.4908542      4.9354965      2442.9079     -2.6191044      516.07569      0.086950433  
     91000   1.4723402      5.0847319      2442.9079     -2.6180776      516.11242      0.086947583  
     91100   1.490878       4.9596948      2442.9079     -2.6190007      516.50212      0.086945239  
     91200   1.4764439      5.0613737      2442.9079     -2.6179147      516.46906      0.086942712  
     91300   1.5117963      4.8304537      2442.9079     -2.6193308      516.66646      0.086938904  
     91400   1.4820087      5.0384659      2442.9079     -2.6180153      517.04674      0.086935729  
     91500   1.5008351      4.9359395      2442.9079     -2.6174056      518.22869      0.086934303  
     91600   1.4910627      4.9620658      2442.9079     -2.618469       518.93587      0.086936025  
     91700   1.4650404      5.1164851      2442.9079     -2.6184718      519.4581       0.086938686  
     91800   1.5007898      4.963987       2442.9079     -2.6184573      519.70828      0.086942188  
     91900   1.4833452      5.0399376      2442.9079     -2.6192784      519.86851      0.08694544   
     92000   1.5063579      4.8793714      2442.9079     -2.6187604      519.79397      0.086948026  
     92100   1.4971326      4.924637       2442.9079     -2.6198418      519.76648      0.086949185  
     92200   1.4961161      4.9533281      2442.9079     -2.6185088      520.64035      0.086950486  
     92300   1.477411       5.058247       2442.9079     -2.6191311      521.04416      0.086953311  
     92400   1.4840764      5.008207       2442.9079     -2.6190563      521.28405      0.08695594   
     92500   1.480726       5.0442209      2442.9079     -2.6180301      521.40515      0.086958552  
     92600   1.500508       4.9042132      2442.9079     -2.6184283      521.70016      0.086960972  
     92700   1.4954762      4.9537057      2442.9079     -2.6187044      521.48609      0.086962583  
     92800   1.4964664      5.0192493      2442.9079     -2.6182972      521.79849      0.086963609  
     92900   1.4780056      5.0533909      2442.9079     -2.618226       522.52939      0.086965469  
     93000   1.4791206      4.9985052      2442.9079     -2.6192195      523.20843      0.086968852  
     93100   1.4991835      4.9460106      2442.9079     -2.6183416      523.58614      0.086973636  
     93200   1.49743        4.965241       2442.9079     -2.619082       523.75228      0.08697798   
     93300   1.4855866      5.0033138      2442.9079     -2.618756       524.33294      0.086982621  
     93400   1.5198035      4.7766932      2442.9079     -2.6198478      524.8636       0.086988347  
     93500   1.4923784      5.0168388      2442.9079     -2.6188194      525.15952      0.086995128  
     93600   1.4561676      5.1813961      2442.9079     -2.6178846      525.33655      0.087001742  
     93700   1.474993       5.0638344      2442.9079     -2.6188912      525.88536      0.087008218  
     93800   1.504625       4.8849093      2442.9079     -2.6181863      526.6058       0.087016263  
     93900   1.4919459      4.9926234      2442.9079     -2.6191922      527.08752      0.087025012  
     94000   1.4753116      5.0802707      2442.9079     -2.6187052      527.35086      0.087034438  
     94100   1.4516241      5.1932216      2442.9079     -2.6176282      527.49406      0.087043478  
     94200   1.4640505      5.1695254      2442.9079     -2.6181247      527.843        0.087052033  
     94300   1.4936606      4.9223271      2442.9079     -2.6190765      528.01823      0.087061457  
     94400   1.4873042      4.9870881      2442.9079     -2.6180038      528.42805      0.08707023   
     94500   1.4904382      4.9446124      2442.9079     -2.6185116      528.53259      0.087078938  
     94600   1.4805195      5.0587093      2442.9079     -2.6181852      529.00857      0.087088054  
     94700   1.4934789      4.977226       2442.9079     -2.6185303      529.30361      0.087096798  
     94800   1.485135       5.0650172      2442.9079     -2.6193698      529.28704      0.087105988  
     94900   1.4807946      5.0381781      2442.9079     -2.6189213      529.88435      0.087114777  
     95000   1.4858081      5.0168149      2442.9079     -2.6186064      529.75406      0.087123498  
     95100   1.4689959      5.0783227      2442.9079     -2.6188761      530.32496      0.087131697  
     95200   1.4901773      4.9469583      2442.9079     -2.6191281      530.48911      0.087139742  
     95300   1.4947084      4.9647357      2442.9079     -2.6185189      530.70825      0.087148602  
     95400   1.5053364      4.8227107      2442.9079     -2.6191962      531.10031      0.087156695  
     95500   1.4750018      5.1088915      2442.9079     -2.6188593      531.6012       0.087165714  
     95600   1.4937309      5.0103006      2442.9079     -2.6181563      532.08498      0.087175641  
     95700   1.5124051      4.8771563      2442.9079     -2.6189854      532.01391      0.087185135  
     95800   1.4740108      5.0813105      2442.9079     -2.6179092      532.2649       0.087193668  
     95900   1.4947106      4.9107145      2442.9079     -2.6191104      532.96864      0.087203175  
     96000   1.5015098      4.87337        2442.9079     -2.6187941      533.27401      0.087213517  
     96100   1.5263608      4.7850116      2442.9079     -2.6194729      533.81641      0.0872245    
     96200   1.4735827      5.0931502      2442.9079     -2.6180548      533.81132      0.087235438  
     96300   1.5051076      4.9057785      2442.9079     -2.6187859      534.27934      0.087246155  
     96400   1.4837553      5.0198953      2442.9079     -2.6186227      534.56172      0.087257112  
     96500   1.4912253      4.9529532      2442.9079     -2.6194133      534.66852      0.087268118  
     96600   1.4942263      4.9773836      2442.9079     -2.6187772      535.03782      0.087278399  
     96700   1.5063998      4.86585        2442.9079     -2.6189948      535.5549       0.087289199  
     96800   1.527228       4.7613658      2442.9079     -2.6196879      536.04623      0.087300687  
     96900   1.4621898      5.1678817      2442.9079     -2.618915       536.62938      0.087312945  
     97000   1.458909       5.1770703      2442.9079     -2.6189552      537.04531      0.087326246  
     97100   1.5113571      4.8585453      2442.9079     -2.6185099      537.01307      0.087339585  
     97200   1.4821101      5.0282709      2442.9079     -2.6188886      537.21505      0.087352023  
     97300   1.4874073      4.9552287      2442.9079     -2.618907       537.70201      0.087364531  
     97400   1.4809444      5.0615743      2442.9079     -2.6187381      538.07419      0.087377587  
     97500   1.5010845      4.9600089      2442.9079     -2.619361       538.39498      0.087390897  
     97600   1.4864925      5.0173254      2442.9079     -2.6190462      538.83299      0.087404467  
     97700   1.5156084      4.824216       2442.9079     -2.6191356      539.67728      0.087418797  
     97800   1.5082928      4.8689437      2442.9079     -2.6188776      539.90007      0.087434637  
     97900   1.4906969      4.9561679      2442.9079     -2.618674       540.62971      0.087450393  
     98000   1.4792712      5.0861874      2442.9079     -2.618048       540.74327      0.087466558  
     98100   1.5077939      4.9353403      2442.9079     -2.6192793      541.2338       0.087482646  
     98200   1.4759556      5.0669686      2442.9079     -2.6196548      541.22193      0.087499165  
     98300   1.4883755      4.9782696      2442.9079     -2.6185605      541.07193      0.087513712  
     98400   1.5228185      4.8590038      2442.9079     -2.6193794      541.28205      0.087527973  
     98500   1.4898704      5.0001877      2442.9079     -2.6194846      540.96181      0.08754094   
     98600   1.5153298      4.7734976      2442.9079     -2.6184319      541.60282      0.087553281  
     98700   1.4793126      5.1009044      2442.9079     -2.6192241      541.80307      0.087565706  
     98800   1.4669526      5.1380567      2442.9079     -2.618093       542.27125      0.08757875   
     98900   1.463473       5.1220991      2442.9079     -2.6186227      542.00073      0.087591239  
     99000   1.4936903      4.9757361      2442.9079     -2.6185687      542.07092      0.087602085  
     99100   1.4826457      4.9878185      2442.9079     -2.6188091      542.07205      0.087612726  
     99200   1.5049391      4.8847559      2442.9079     -2.6191765      542.33449      0.087622481  
     99300   1.5149772      4.8695684      2442.9079     -2.6189528      542.4594       0.087632315  
     99400   1.4798784      5.0561004      2442.9079     -2.6186834      542.67085      0.087641313  
     99500   1.4948203      4.9470536      2442.9079     -2.6198107      542.58181      0.087649775  
     99600   1.4923782      4.929681       2442.9079     -2.6184392      542.65353      0.087656993  
     99700   1.4961566      4.9053438      2442.9079     -2.6194197      542.95237      0.087663871  
     99800   1.5146494      4.8782045      2442.9079     -2.617701       543.60379      0.087671334  
     99900   1.4778317      5.0979848      2442.9079     -2.6186172      544.20585      0.08767968   
    100000   1.51599        4.8106448      2442.9079     -2.6180821      544.35747      0.087688837  
Loop time of 492.973 on 1 procs for 80000 steps with 2048 atoms

Performance: 70105.194 tau/day, 162.281 timesteps/s, 332.351 katom-step/s
99.5% CPU use with 1 MPI tasks x 1 OpenMP threads

MPI task timing breakdown:
Section |  min time  |  avg time  |  max time  |%varavg| %total
---------------------------------------------------------------
Pair    | 375.7      | 375.7      | 375.7      |   0.0 | 76.21
Neigh   | 78.412     | 78.412     | 78.412     |   0.0 | 15.91
Comm    | 6.3576     | 6.3576     | 6.3576     |   0.0 |  1.29
Output  | 20.039     | 20.039     | 20.039     |   0.0 |  4.07
Modify  | 10.068     | 10.068     | 10.068     |   0.0 |  2.04
Other   |            | 2.395      |            |       |  0.49

Nlocal:           2048 ave        2048 max        2048 min
Histogram: 1 0 0 0 0 0 0 0 0 0
Nghost:           3787 ave        3787 max        3787 min
Histogram: 1 0 0 0 0 0 0 0 0 0
Neighs:          77030 ave       77030 max       77030 min
Histogram: 1 0 0 0 0 0 0 0 0 0

Total # of neighbors = 77030
Ave neighs/atom = 37.612305
Neighbor list builds = 12888
Dangerous builds = 0
unfix integrate2
unfix m_MSD
Total wall time: 0:10:10

