
     Program PWSCF v.7.4 starts on 11Aug2025 at 20:59: 9 

     This program is part of the open-source Quantum ESPRESSO suite
     for quantum simulation of materials; please cite
         "P. Giannozzi et al., J. Phys.:Condens. Matter 21 395502 (2009);
         "P. Giannozzi et al., J. Phys.:Condens. Matter 29 465901 (2017);
         "P. Giannozzi et al., J. Chem. Phys. 152 154105 (2020);
          URL http://www.quantum-espresso.org", 
     in publications or presentations arising from this work. More details at
     http://www.quantum-espresso.org/quote

     Parallel version (MPI & OpenMP), running on       2 processor cores
     Number of MPI processes:                 2
     Threads/MPI process:                     1

     MPI processes distributed on     1 nodes
     27891 MiB available memory on the printing compute node when the environment starts

     Waiting for input...
     Reading input from standard input

     Current dimensions of program PWSCF are:
     Max number of different atomic species (ntypx) = 10
     Max number of k-points (npk) =  40000
     Max angular momentum in pseudopotentials (lmaxx) =  4
     file Si.pz-vbc.UPF: wavefunction(s)  3S renormalized

     R & G space division:  proc/nbgrp/npool/nimage =       2
     Subspace diagonalization in iterative solution of the eigenvalue problem:
     a serial algorithm will be used


     Parallelization info
     --------------------
     sticks:   dense  smooth     PW     G-vecs:    dense   smooth      PW
     Min         237     237     81                 3438     3438     681
     Max         238     238     82                 3441     3441     682
     Sum         475     475    163                 6879     6879    1363

     Using Slab Decomposition



     bravais-lattice index     =            2
     lattice parameter (alat)  =      10.0000  a.u.
     unit-cell volume          =     250.0000 (a.u.)^3
     number of atoms/cell      =            2
     number of atomic types    =            1
     number of electrons       =         8.00
     number of Kohn-Sham states=            4
     kinetic-energy cutoff     =      35.0000  Ry
     charge density cutoff     =     140.0000  Ry
     scf convergence threshold =      1.0E-06
     mixing beta               =       0.6000
     number of iterations used =            8  plain     mixing
     Exchange-correlation= SLA  PZ   NOGX NOGC
                           (   1   1   0   0   0   0   0)

     celldm(1)=  10.000000  celldm(2)=   0.000000  celldm(3)=   0.000000
     celldm(4)=   0.000000  celldm(5)=   0.000000  celldm(6)=   0.000000

     crystal axes: (cart. coord. in units of alat)
               a(1) = (  -0.500000   0.000000   0.500000 )  
               a(2) = (   0.000000   0.500000   0.500000 )  
               a(3) = (  -0.500000   0.500000   0.000000 )  

     reciprocal axes: (cart. coord. in units 2 pi/alat)
               b(1) = ( -1.000000 -1.000000  1.000000 )  
               b(2) = (  1.000000  1.000000  1.000000 )  
               b(3) = ( -1.000000  1.000000 -1.000000 )  


     PseudoPot. # 1 for Si read from file:
     ./Si.pz-vbc.UPF
     MD5 check sum: 0f64179521154464f50d54a56d9f4e6d
     Pseudo is Projector augmented-wave + core cor, Zval =  4.0
     Generated using "atomic" code by A. Dal Corso  v.5.0.2 svn rev. 9415
     Shape of augmentation charge: PSQ
     Using radial grid of 1141 points,  4 beta functions with: 
                l(1) =   0
                l(2) =   0
                l(3) =   1
                l(4) =   1
     Q(r) pseudized with 0 coefficients 


     atomic species   valence    mass     pseudopotential
     Si                4.00    28.08600     Si( 1.00)

     48 Sym. Ops., with inversion, found (24 have fractional translation)



   Cartesian axes

     site n.     atom                  positions (alat units)
         1        Si     tau(   1) = (   0.0000000   0.0000000   0.0000000  )
         2        Si     tau(   2) = (   0.2500000   0.2500000   0.2500000  )

     number of k points=    28
                       cart. coord. in units 2pi/alat
        k(    1) = (  -0.0833333   0.0833333   0.0833333), wk =   0.0185185
        k(    2) = (  -0.2500000   0.2500000  -0.0833333), wk =   0.0555556
        k(    3) = (  -0.4166667   0.4166667  -0.2500000), wk =   0.0555556
        k(    4) = (   0.4166667  -0.4166667   0.5833333), wk =   0.0555556
        k(    5) = (   0.2500000  -0.2500000   0.4166667), wk =   0.0555556
        k(    6) = (   0.0833333  -0.0833333   0.2500000), wk =   0.0555556
        k(    7) = (  -0.0833333   0.4166667   0.0833333), wk =   0.0555556
        k(    8) = (  -0.2500000   0.5833333  -0.0833333), wk =   0.1111111
        k(    9) = (   0.5833333  -0.2500000   0.7500000), wk =   0.1111111
        k(   10) = (   0.4166667  -0.0833333   0.5833333), wk =   0.1111111
        k(   11) = (   0.2500000   0.0833333   0.4166667), wk =   0.1111111
        k(   12) = (  -0.0833333   0.7500000   0.0833333), wk =   0.0555556
        k(   13) = (   0.7500000  -0.0833333   0.9166667), wk =   0.1111111
        k(   14) = (   0.5833333   0.0833333   0.7500000), wk =   0.1111111
        k(   15) = (   0.4166667   0.2500000   0.5833333), wk =   0.1111111
        k(   16) = (  -0.0833333  -0.9166667   0.0833333), wk =   0.0555556
        k(   17) = (  -0.2500000  -0.7500000  -0.0833333), wk =   0.1111111
        k(   18) = (  -0.0833333  -0.5833333   0.0833333), wk =   0.0555556
        k(   19) = (  -0.2500000   0.2500000   0.2500000), wk =   0.0185185
        k(   20) = (  -0.4166667   0.4166667   0.0833333), wk =   0.0555556
        k(   21) = (   0.4166667  -0.4166667   0.9166667), wk =   0.0555556
        k(   22) = (   0.2500000  -0.2500000   0.7500000), wk =   0.0555556
        k(   23) = (  -0.2500000   0.5833333   0.2500000), wk =   0.0555556
        k(   24) = (   0.5833333  -0.2500000   1.0833333), wk =   0.1111111
        k(   25) = (   0.4166667  -0.0833333   0.9166667), wk =   0.1111111
        k(   26) = (  -0.2500000  -1.0833333   0.2500000), wk =   0.0555556
        k(   27) = (  -0.4166667   0.4166667   0.4166667), wk =   0.0185185
        k(   28) = (   0.4166667  -0.4166667   1.2500000), wk =   0.0555556

     Dense  grid:     6879 G-vectors     FFT dimensions: (  32,  32,  32)

     Estimated max dynamical RAM per process >       6.07 MB

     Estimated total dynamical RAM >      12.14 MB

     Check: negative core charge=   -0.000003

     Initial potential from superposition of free atoms

     starting charge       7.9990, renormalised to       8.0000
     Starting wfcs are    8 randomized atomic wfcs
     Checking if some PAW data can be deallocated... 

     total cpu time spent up to now is        4.6 secs

     per-process dynamical memory:     9.9 Mb

     Self-consistent Calculation

     iteration #  1     ecut=    35.00 Ry     beta= 0.60
     Davidson diagonalization with overlap
     ethr =  1.00E-02,  avg # of iterations =  2.0

     Threshold (ethr) on eigenvalues was too large:
     Diagonalizing with lowered threshold

     Davidson diagonalization with overlap
     ethr =  7.50E-04,  avg # of iterations =  1.0

     total cpu time spent up to now is       17.7 secs

     total energy              =     -89.28324465 Ry
     estimated scf accuracy    <       0.06645763 Ry

     iteration #  2     ecut=    35.00 Ry     beta= 0.60
     Davidson diagonalization with overlap
     ethr =  8.31E-04,  avg # of iterations =  1.0

     total cpu time spent up to now is       22.7 secs

     total energy              =     -89.28510826 Ry
     estimated scf accuracy    <       0.00522381 Ry

     iteration #  3     ecut=    35.00 Ry     beta= 0.60
     Davidson diagonalization with overlap
     ethr =  6.53E-05,  avg # of iterations =  2.0

     total cpu time spent up to now is       29.0 secs

     total energy              =     -89.28596045 Ry
     estimated scf accuracy    <       0.00016198 Ry

     iteration #  4     ecut=    35.00 Ry     beta= 0.60
     Davidson diagonalization with overlap
     ethr =  2.02E-06,  avg # of iterations =  3.0

     total cpu time spent up to now is       38.2 secs

     total energy              =     -89.28603013 Ry
     estimated scf accuracy    <       0.00000986 Ry

     iteration #  5     ecut=    35.00 Ry     beta= 0.60
     Davidson diagonalization with overlap
     ethr =  1.23E-07,  avg # of iterations =  4.1

     total cpu time spent up to now is       47.9 secs

     End of self-consistent calculation

          k =-0.0833 0.0833 0.0833 (   881 PWs)   bands (ev):

    -5.5531   5.9924   6.7156   6.7156

          k =-0.2500 0.2500-0.0833 (   893 PWs)   bands (ev):

    -5.0408   3.8314   5.3692   6.5064

          k =-0.4167 0.4167-0.2500 (   874 PWs)   bands (ev):

    -3.8553   0.8704   4.9019   5.8246

          k = 0.4167-0.4167 0.5833 (   867 PWs)   bands (ev):

    -3.0711  -0.3871   4.9918   5.4084

          k = 0.2500-0.2500 0.4167 (   875 PWs)   bands (ev):

    -4.3054   1.7821   5.4567   5.5285

          k = 0.0833-0.0833 0.2500 (   894 PWs)   bands (ev):

    -5.2948   4.9033   6.0048   6.2428

          k =-0.0833 0.4167 0.0833 (   874 PWs)   bands (ev):

    -4.7824   3.7025   5.2173   5.2267

          k =-0.2500 0.5833-0.0833 (   869 PWs)   bands (ev):

    -3.8002   1.7644   3.7727   4.8042

          k = 0.5833-0.2500 0.7500 (   871 PWs)   bands (ev):

    -2.5628  -0.1730   3.1522   4.5481

          k = 0.4167-0.0833 0.5833 (   872 PWs)   bands (ev):

    -3.3674   1.0046   3.0699   5.0887

          k = 0.2500 0.0833 0.4167 (   873 PWs)   bands (ev):

    -4.5385   2.7767   4.5307   5.8333

          k =-0.0833 0.7500 0.0833 (   871 PWs)   bands (ev):

    -3.0390   0.9429   3.7235   4.1176

          k = 0.7500-0.0833 0.9167 (   873 PWs)   bands (ev):

    -1.7389  -0.4829   2.7737   3.6498

          k = 0.5833 0.0833 0.7500 (   873 PWs)   bands (ev):

    -2.1124  -0.1750   2.2542   4.2462

          k = 0.4167 0.2500 0.5833 (   876 PWs)   bands (ev):

    -3.2338   0.1916   4.1464   5.2033

          k =-0.0833-0.9167 0.0833 (   873 PWs)   bands (ev):

    -1.8508  -0.4983   3.4300   3.8882

          k =-0.2500-0.7500-0.0833 (   876 PWs)   bands (ev):

    -2.8501   0.6946   3.1455   4.0174

          k =-0.0833-0.5833 0.0833 (   864 PWs)   bands (ev):

    -4.0251   2.3781   4.3245   4.5681

          k =-0.2500 0.2500 0.2500 (   881 PWs)   bands (ev):

    -4.7930   2.7681   6.0614   6.0614

          k =-0.4167 0.4167 0.0833 (   874 PWs)   bands (ev):

    -4.0595   1.8363   3.7339   5.8894

          k = 0.4167-0.4167 0.9167 (   869 PWs)   bands (ev):

    -2.7711   0.3331   2.5142   5.0291

          k = 0.2500-0.2500 0.7500 (   866 PWs)   bands (ev):

    -2.7205   0.2507   3.0538   4.5022

          k =-0.2500 0.5833 0.2500 (   876 PWs)   bands (ev):

    -3.5985   0.9563   4.2865   4.9042

          k = 0.5833-0.2500 1.0833 (   871 PWs)   bands (ev):

    -2.5090   0.2547   2.6170   3.9992

          k = 0.4167-0.0833 0.9167 (   874 PWs)   bands (ev):

    -1.6051  -0.4909   2.4045   3.2579

          k =-0.2500-1.0833 0.2500 (   876 PWs)   bands (ev):

    -1.8289  -0.4200   2.2674   4.2931

          k =-0.4167 0.4167 0.4167 (   869 PWs)   bands (ev):

    -3.4865   0.0508   5.6579   5.6579

          k = 0.4167-0.4167 1.2500 (   868 PWs)   bands (ev):

    -2.8199  -0.2479   3.6794   5.1698

     highest occupied level (ev):     6.7156

!    total energy              =     -89.28603770 Ry
     total all-electron energy =     -1156.152166 Ry
     estimated scf accuracy    <       0.00000088 Ry

     The total energy is the sum of the following terms:
     one-electron contribution =       6.38016737 Ry
     hartree contribution      =       1.02658419 Ry
     xc contribution           =     -12.26410508 Ry
     ewald contribution        =     -17.23775377 Ry
     one-center paw contrib.   =     -67.19093042 Ry

     convergence has been achieved in   5 iterations

     Writing all to output data dir ./tmp/silicon.save/ :
     XML data file, charge density, pseudopotentials, collected wavefunctions

     init_run     :      3.91s CPU      4.39s WALL (       1 calls)
     electrons    :     36.93s CPU     43.34s WALL (       1 calls)

     Called by init_run:
     wfcinit      :      3.39s CPU      3.88s WALL (       1 calls)
     potinit      :      0.09s CPU      0.09s WALL (       1 calls)
     hinit0       :      0.39s CPU      0.40s WALL (       1 calls)

     Called by electrons:
     c_bands      :     32.22s CPU     38.14s WALL (       6 calls)
     sum_band     :      4.31s CPU      4.68s WALL (       6 calls)
     v_of_rho     :      0.09s CPU      0.12s WALL (       6 calls)
     newd         :      0.08s CPU      0.10s WALL (       6 calls)
     PAW_pot      :      0.26s CPU      0.30s WALL (       6 calls)
     mix_rho      :      0.01s CPU      0.01s WALL (       6 calls)

     Called by c_bands:
     init_us_2    :      0.08s CPU      0.08s WALL (     364 calls)
     cegterg      :     32.06s CPU     37.92s WALL (     168 calls)

     Called by *egterg:
     cdiaghg      :      0.21s CPU      0.37s WALL (     508 calls)
     h_psi        :     31.85s CPU     37.11s WALL (     564 calls)
     s_psi        :      0.03s CPU      0.04s WALL (     564 calls)
     g_psi        :      0.01s CPU      0.01s WALL (     368 calls)

     Called by h_psi:
     h_psi:calbec :      2.59s CPU      3.21s WALL (     564 calls)
     vloc_psi     :     29.22s CPU     33.85s WALL (     564 calls)
     add_vuspsi   :      0.03s CPU      0.04s WALL (     564 calls)

     General routines
     calbec       :      2.97s CPU      3.66s WALL (     732 calls)
     fft          :      0.13s CPU      0.15s WALL (      25 calls)
     ffts         :      0.01s CPU      0.01s WALL (       6 calls)
     fftw         :     32.77s CPU     37.71s WALL (    4920 calls)

     Parallel routines

     PWSCF        :     41.14s CPU     48.17s WALL


   This run was terminated on:  20:59:58  11Aug2025            

=------------------------------------------------------------------------------=
   JOB DONE.
=------------------------------------------------------------------------------=
