LAMMPS (2 Apr 2025)
OMP_NUM_THREADS environment is not set. Defaulting to 1 thread. (src/comm.cpp:99)
  using 1 OpenMP thread(s) per MPI task
# Define Variables
variable temp equal 1.5
variable rdf_bins equal 50
variable sim_run equal 1

# Define the Units
units lj
atom_style atomic

# Create a Simulation Box
read_data Ar.data
Reading data file ...
  orthogonal box = (0 0 0) to (42.08 42.08 42.08)
  1 by 1 by 1 MPI processor grid
  reading atoms ...
  2048 atoms
  read_data CPU = 0.063 seconds

# Assign the Group to Argon and Assign it's mass
group Ar type 1
2048 atoms in group Ar
mass 1 1.0

# Define the Potential of the Simulation
pair_style lj/cut 2.5
pair_coeff 1 1 1.0 1.0

# Set the initial velocity
velocity all create ${temp} 54343
velocity all create 1.5 54343

# Define the Thermodynamics Output
thermo 100
thermo_style custom step temp press vol etotal
timestep 0.005

# Compute the RDF
compute RDF all rdf ${rdf_bins}
compute RDF all rdf 50

# Run the Simulation
fix integrate1 all npt temp ${temp} ${temp} 1 iso 5 5 1
fix integrate1 all npt temp 1.5 ${temp} 1 iso 5 5 1
fix integrate1 all npt temp 1.5 1.5 1 iso 5 5 1
fix 1 all ave/time 100 10 1000 c_RDF[*] file RDF_Pre_Sim${sim_run}.data mode vector
fix 1 all ave/time 100 10 1000 c_RDF[*] file RDF_Pre_Sim1.data mode vector


# Run the Simulation
run 20000
Generated 0 of 0 mixed pair_coeff terms from geometric mixing rule
Neighbor list info ...
  update: every = 1 steps, delay = 0 steps, check = yes
  max neighbors/atom: 2000, page size: 100000
  master list distance cutoff = 2.8
  ghost atom cutoff = 2.8
  binsize = 1.4, bins = 31 31 31
  2 neighbor lists, perpetual/occasional/extra = 1 1 0
  (1) pair lj/cut, perpetual
      attributes: half, newton on
      pair build: half/bin/atomonly/newton
      stencil: half/bin/3d
      bin: standard
  (2) compute rdf, occasional, copy from (1)
      attributes: half, newton on
      pair build: copy
      stencil: none
      bin: none
Per MPI rank memory allocation (min/avg/max) = 3.287 | 3.287 | 3.287 Mbytes
   Step          Temp          Press          Volume         TotEng    
         0   1.5            0.041208035    74512.167      2.2489014    
       100   2.9584212      0.25629223     26816.409      4.222596     
       200   4.1210857      0.60515021     15273.463      5.5466898    
       300   4.5825455      1.0731064      10328.991      5.9390921    
       400   4.5932081      1.5349206      7708.1454      5.6297296    
       500   4.3641472      2.0002531      6145.7045      4.9412439    
       600   3.9433239      2.6874136      5119.2155      4.0774458    
       700   3.5938619      3.0807353      4425.9816      3.1931611    
       800   3.2952532      3.3232888      3915.0637      2.3351506    
       900   2.9415347      3.7784608      3558.0397      1.5394074    
      1000   2.6806687      4.0124501      3281.9911      0.82944064   
      1100   2.4906519      4.1011514      3080.5195      0.1859459    
      1200   2.2667895      4.3580447      2922.6026     -0.38019963   
      1300   2.0769157      4.4973318      2801.0927     -0.88329103   
      1400   1.9116694      4.6125826      2703.8981     -1.3187229    
      1500   1.75212        4.8384198      2632.8666     -1.6989346    
      1600   1.6737843      4.9820889      2559.3771     -1.9895792    
      1700   1.6215192      4.7222317      2511.4108     -2.262672     
      1800   1.5156115      4.7745345      2481.6623     -2.5039632    
      1900   1.4604154      4.9056327      2448.1717     -2.6584588    
      2000   1.4361425      4.8668123      2424.0198     -2.7737368    
      2100   1.3886771      5.1131333      2410.1448     -2.8514535    
      2200   1.400656       5.1423577      2397.2304     -2.8661028    
      2300   1.4233665      5.0338327      2399.7166     -2.8490257    
      2400   1.4214021      5.1523835      2409.8339     -2.7906617    
      2500   1.47329        5.1328569      2420.2631     -2.6925264    
      2600   1.5227547      5.0304049      2435.8335     -2.5908058    
      2700   1.5179232      4.870678       2462.0361     -2.5302006    
      2800   1.5466462      5.076249       2464.0803     -2.4413572    
      2900   1.5770656      4.9604702      2472.9479     -2.4083227    
      3000   1.5876564      4.8625215      2475.7841     -2.4115661    
      3100   1.4926705      5.1178439      2476.646      -2.4655992    
      3200   1.5365501      4.9133129      2459.753      -2.5076978    
      3300   1.5174833      5.0419277      2444.1276     -2.565759     
      3400   1.4852695      5.0083031      2438.2027     -2.6429129    
      3500   1.4625322      4.7344763      2439.6306     -2.7252403    
      3600   1.4302397      5.0860296      2424.4104     -2.743494     
      3700   1.4594235      4.7035969      2429.004      -2.7721962    
      3800   1.4354075      4.9014859      2431.1164     -2.7529944    
      3900   1.4862581      5.07566        2423.7559     -2.6703603    
      4000   1.4745608      5.3352344      2431.5297     -2.6054717    
      4100   1.5522348      5.0549209      2439.0064     -2.5359148    
      4200   1.5044569      5.1008771      2462.3335     -2.5179869    
      4300   1.5375412      4.7854958      2471.3349     -2.4859734    
      4400   1.5455162      4.6994434      2476.3279     -2.4821047    
      4500   1.5222034      4.9257011      2471.2446     -2.4961332    
      4600   1.5536094      5.1467584      2446.508      -2.4882198    
      4700   1.5149359      4.955197       2451.4203     -2.5646781    
      4800   1.4654029      4.8503631      2454.8262     -2.638098     
      4900   1.4851484      5.027741       2432.6151     -2.6421844    
      5000   1.4796928      4.9280163      2430.1069     -2.6851596    
      5100   1.447434       5.04977        2427.7531     -2.7123871    
      5200   1.4797698      5.0471703      2421.2863     -2.6958706    
      5300   1.4634817      5.0957102      2427.6618     -2.6806831    
      5400   1.477055       4.9440819      2437.2144     -2.6566431    
      5500   1.4986024      5.056256       2439.8244     -2.6045857    
      5600   1.501297       5.0592554      2447.9254     -2.5681113    
      5700   1.4903587      5.0282609      2458.2324     -2.5483062    
      5800   1.5312856      4.9419449      2458.7681     -2.523565     
      5900   1.5202875      4.989982       2458.9165     -2.5183482    
      6000   1.4991279      4.7040662      2474.1624     -2.5667223    
      6100   1.482959       4.5439397      2478.0851     -2.5964612    
      6200   1.4905971      5.0463988      2452.3938     -2.5691175    
      6300   1.5393818      5.2460773      2425.7354     -2.5505252    
      6400   1.4819482      4.9801781      2440.4203     -2.6388312    
      6500   1.4692604      5.0884749      2430.8878     -2.6583443    
      6600   1.4808504      5.0704401      2424.2842     -2.6701925    
      6700   1.4603585      5.1230941      2424.3671     -2.6820011    
      6800   1.4506556      4.8552461      2441.1203     -2.716175     
      6900   1.4857638      4.8526938      2434.6312     -2.6746208    
      7000   1.5091202      5.2635131      2422.2482     -2.6016097    
      7100   1.4823913      5.1469115      2437.8085     -2.5957342    
      7200   1.5413244      4.9160396      2441.7618     -2.5719406    
      7300   1.4771721      4.8897569      2460.1777     -2.5900385    
      7400   1.4851883      4.5634158      2473.8851     -2.6072437    
      7500   1.5295774      4.8868366      2451.0559     -2.5606024    
      7600   1.516253       5.1730753      2438.6499     -2.5523062    
      7700   1.5219543      5.1682283      2432.9299     -2.572404     
      7800   1.4724151      5.2047934      2440.5524     -2.6215395    
      7900   1.4880394      5.0533119      2436.0878     -2.6340467    
      8000   1.4889935      5.1694217      2431.029      -2.6292088    
      8100   1.4819069      5.2636155      2430.3845     -2.6181801    
      8200   1.49204        4.976796       2440.6709     -2.6270025    
      8300   1.5073528      4.9760047      2439.4111     -2.6023172    
      8400   1.4866161      5.1188504      2440.8669     -2.5912421    
      8500   1.4683979      4.9940549      2450.8223     -2.6072162    
      8600   1.5006395      5.090671       2444.3597     -2.5781328    
      8700   1.5306851      5.2737607      2433.3986     -2.5387142    
      8800   1.5232755      4.951864       2446.553      -2.5660611    
      8900   1.5058414      4.7253915      2456.2055     -2.5905006    
      9000   1.4855769      4.6887993      2460.8485     -2.6133058    
      9100   1.4941903      5.0073381      2445.1261     -2.5976653    
      9200   1.4903233      5.0313393      2441.565      -2.6094593    
      9300   1.514256       4.8502108      2440.0171     -2.6208777    
      9400   1.4822008      4.9561049      2441.9556     -2.6370647    
      9500   1.4666935      4.915598       2443.3361     -2.6437558    
      9600   1.4734584      4.8661917      2445.7851     -2.6539951    
      9700   1.5259859      4.8927341      2432.4123     -2.6224937    
      9800   1.4932938      4.8922496      2442.9266     -2.6404982    
      9900   1.4798057      4.9182303      2445.0148     -2.629593     
     10000   1.5311777      4.6467337      2447.7277     -2.6179652    
     10100   1.5123347      5.0773796      2441.6587     -2.5836124    
     10200   1.4965208      4.7962331      2457.4219     -2.5945574    
     10300   1.4892827      4.6742381      2468.5582     -2.6002886    
     10400   1.5480548      5.054665       2441.3826     -2.5271645    
     10500   1.5463575      5.3583386      2428.8893     -2.5097786    
     10600   1.4440976      5.6055123      2438.3132     -2.5663994    
     10700   1.4957928      4.6063401      2454.2704     -2.6382244    
     10800   1.4740122      4.667047       2455.0099     -2.6660143    
     10900   1.4801993      4.7688068      2442.5705     -2.6615136    
     11000   1.460356       5.1919561      2432.1422     -2.6486267    
     11100   1.457957       5.1388408      2433.4518     -2.651552     
     11200   1.4812591      4.8547758      2442.3076     -2.6551578    
     11300   1.5084912      5.0310368      2434.2401     -2.6104957    
     11400   1.5210889      4.9451347      2441.1951     -2.5982128    
     11500   1.5264843      4.86861        2447.5293     -2.5835431    
     11600   1.4796877      4.5232253      2475.0201     -2.6240539    
     11700   1.4770395      4.784594       2467.735      -2.5880783    
     11800   1.550037       5.0690049      2443.8671     -2.5202008    
     11900   1.5379818      5.1896077      2439.2787     -2.5145402    
     12000   1.4985406      4.9798076      2451.0864     -2.5710356    
     12100   1.5108248      4.8120288      2449.3147     -2.6084916    
     12200   1.4875257      4.9091338      2441.8407     -2.6342686    
     12300   1.4683917      5.0548346      2435.2061     -2.658841     
     12400   1.4546298      5.2808256      2423.5726     -2.6653958    
     12500   1.4626469      5.3073764      2417.8929     -2.665099     
     12600   1.4575643      4.959154       2433.9876     -2.6948162    
     12700   1.464945       5.0563904      2432.8476     -2.666908     
     12800   1.5327156      4.9130887      2429.6847     -2.6218909    
     12900   1.5098148      5.1984165      2430.7146     -2.5891759    
     13000   1.4753945      5.0429384      2449.8456     -2.5985823    
     13100   1.5321482      5.095068       2442.3022     -2.5496734    
     13200   1.5516582      5.1198642      2438.1642     -2.5158795    
     13300   1.4998059      5.1074         2454.0522     -2.5433427    
     13400   1.4815499      4.8257537      2467.0116     -2.5819715    
     13500   1.4924428      4.8772387      2454.0504     -2.5892567    
     13600   1.5067388      4.9358406      2440.9523     -2.6046849    
     13700   1.4902504      4.9383742      2437.4354     -2.64358      
     13800   1.4735356      5.0254119      2432.9466     -2.6720544    
     13900   1.4776495      5.2017631      2421.4071     -2.6707677    
     14000   1.4615079      5.1581568      2425.2518     -2.6928054    
     14100   1.4690064      5.1285646      2424.0421     -2.6755069    
     14200   1.5140281      4.6631607      2437.9367     -2.6686196    
     14300   1.5214694      4.8478756      2437.434      -2.6201651    
     14400   1.4948546      5.0602168      2440.5555     -2.5875477    
     14500   1.5196589      5.0256408      2444.0885     -2.5683488    
     14600   1.5137409      4.9725313      2452.383      -2.5664045    
     14700   1.4862761      4.7777958      2466.0058     -2.5884064    
     14800   1.5479382      5.0431731      2442.2015     -2.5265134    
     14900   1.5545634      5.2421517      2434.7016     -2.5027619    
     15000   1.4849804      4.9073304      2460.9702     -2.5787133    
     15100   1.5039365      4.734071       2457.8269     -2.594284     
     15200   1.5021633      5.0325619      2443.2509     -2.5947992    
     15300   1.4872673      5.2528234      2432.0643     -2.5978928    
     15400   1.4836774      5.0671552      2435.7213     -2.6266294    
     15500   1.49001        4.6981484      2447.3081     -2.6583354    
     15600   1.4288876      4.7032015      2463.1767     -2.6891615    
     15700   1.521172       4.8678241      2436.7778     -2.6133169    
     15800   1.4867381      5.1412217      2438.045      -2.6000639    
     15900   1.4701366      5.1017999      2449.0844     -2.6038271    
     16000   1.5113397      5.0571579      2444.8147     -2.5656459    
     16100   1.5378982      5.0574271      2442.6804     -2.5397811    
     16200   1.5561779      4.9522873      2442.3645     -2.5347112    
     16300   1.4714719      5.0099004      2458.0227     -2.5873092    
     16400   1.4696039      4.7236085      2463.8603     -2.6284103    
     16500   1.5307961      5.3157751      2423.7512     -2.5566885    
     16600   1.4935981      5.348327       2426.7172     -2.5889566    
     16700   1.492268       5.0369474      2433.2805     -2.6362051    
     16800   1.4699457      5.2840749      2425.8799     -2.6389402    
     16900   1.4854348      5.1475915      2426.8528     -2.6443592    
     17000   1.4565472      4.7950623      2448.8176     -2.6819964    
     17100   1.4911127      4.8529951      2446.2555     -2.6413392    
     17200   1.5150197      5.0999075      2436.5711     -2.5857183    
     17300   1.5477957      4.83675        2439.4566     -2.5636888    
     17400   1.4963678      5.1252407      2446.8945     -2.5619892    
     17500   1.495265       4.8176482      2459.1997     -2.5758771    
     17600   1.5171418      4.708853       2463.3429     -2.5757982    
     17700   1.5559245      4.9721897      2444.3965     -2.5291739    
     17800   1.5044613      4.9993035      2453.6967     -2.5673047    
     17900   1.5460311      5.3266444      2426.1692     -2.5232909    
     18000   1.5145509      5.1221782      2435.1705     -2.5779064    
     18100   1.4618726      4.6917137      2454.5292     -2.6635874    
     18200   1.4479794      4.7501189      2453.4817     -2.6924102    
     18300   1.4745467      5.0540732      2432.4567     -2.6619988    
     18400   1.5085857      4.9006761      2429.3578     -2.6566718    
     18500   1.5072684      4.9568406      2432.2968     -2.6436424    
     18600   1.473527       5.3061479      2433.0767     -2.6172763    
     18700   1.512707       5.1578993      2434.5294     -2.5891774    
     18800   1.5213976      5.0110407      2441.6331     -2.5783377    
     18900   1.4796192      4.8636712      2457.8496     -2.6006076    
     19000   1.5219285      4.7417318      2454.0323     -2.5860349    
     19100   1.509223       5.1454604      2441.6662     -2.5677935    
     19200   1.5102905      5.1936146      2435.1811     -2.5733503    
     19300   1.5332532      4.9764787      2433.6091     -2.5921099    
     19400   1.4578801      4.7481726      2454.7231     -2.6664549    
     19500   1.4560757      5.051936       2441.5517     -2.6544819    
     19600   1.5015773      5.1212492      2427.129      -2.626893     
     19700   1.4847255      5.2572714      2426.3219     -2.6210781    
     19800   1.4822392      5.0244121      2437.1862     -2.6357434    
     19900   1.485439       5.0702549      2436.9798     -2.6136834    
     20000   1.4636102      5.044266       2448.1381     -2.6126511    
Loop time of 76.9927 on 1 procs for 20000 steps with 2048 atoms

Performance: 112218.396 tau/day, 259.765 timesteps/s, 531.998 katom-step/s
99.9% CPU use with 1 MPI tasks x 1 OpenMP threads

MPI task timing breakdown:
Section |  min time  |  avg time  |  max time  |%varavg| %total
---------------------------------------------------------------
Pair    | 50.327     | 50.327     | 50.327     |   0.0 | 65.37
Neigh   | 20.647     | 20.647     | 20.647     |   0.0 | 26.82
Comm    | 1.602      | 1.602      | 1.602      |   0.0 |  2.08
Output  | 0.0054566  | 0.0054566  | 0.0054566  |   0.0 |  0.01
Modify  | 3.8206     | 3.8206     | 3.8206     |   0.0 |  4.96
Other   |            | 0.5907     |            |       |  0.77

Nlocal:           2048 ave        2048 max        2048 min
Histogram: 1 0 0 0 0 0 0 0 0 0
Nghost:           3744 ave        3744 max        3744 min
Histogram: 1 0 0 0 0 0 0 0 0 0
Neighs:          76801 ave       76801 max       76801 min
Histogram: 1 0 0 0 0 0 0 0 0 0

Total # of neighbors = 76801
Ave neighs/atom = 37.500488
Neighbor list builds = 3536
Dangerous builds = 76
unfix integrate1

# Output the RDF Data to the Dump Folder
fix integrate2 all nve
fix 1 all ave/time 100 10 1000 c_RDF[*] file RDF_Sim${sim_run}.data mode vector
fix 1 all ave/time 100 10 1000 c_RDF[*] file RDF_Sim1.data mode vector

# Dump the files for the positions of the Atoms every 100 Frames
dump            myDump1 all custom 100 Dumpfiles/_*.dump id type element x y z vx vy vz fx fy fz
dump_modify 	myDump1 element Ar

# Run the Simulation
run 80000
Generated 0 of 0 mixed pair_coeff terms from geometric mixing rule
Per MPI rank memory allocation (min/avg/max) = 3.762 | 3.762 | 3.762 Mbytes
   Step          Temp          Press          Volume         TotEng    
     20000   1.4636102      5.044266       2448.1381     -2.6126511    
     20100   1.5043292      4.8716221      2448.1381     -2.6123284    
     20200   1.4791878      4.9677809      2448.1381     -2.6135001    
     20300   1.492769       4.9228628      2448.1381     -2.6118364    
     20400   1.5013368      4.8392267      2448.1381     -2.6129171    
     20500   1.4879022      4.9040457      2448.1381     -2.6129058    
     20600   1.4733465      5.0449415      2448.1381     -2.6125042    
     20700   1.5039696      4.8180365      2448.1381     -2.6131698    
     20800   1.5005804      4.8526984      2448.1381     -2.6129669    
     20900   1.4579458      5.1254261      2448.1381     -2.6127827    
     21000   1.4993565      4.8563363      2448.1381     -2.6129774    
     21100   1.4666869      5.0419599      2448.1381     -2.6123823    
     21200   1.4603806      5.1186173      2448.1381     -2.6114256    
     21300   1.4999186      4.8809758      2448.1381     -2.6128424    
     21400   1.4831371      4.9253628      2448.1381     -2.6128723    
     21500   1.4793818      5.0080036      2448.1381     -2.6127958    
     21600   1.4968553      4.909453       2448.1381     -2.6122943    
     21700   1.5086496      4.8516904      2448.1381     -2.6120896    
     21800   1.4518229      5.1546766      2448.1381     -2.6131037    
     21900   1.4704977      5.0656261      2448.1381     -2.6115483    
     22000   1.5039235      4.9005514      2448.1381     -2.6135874    
     22100   1.4944781      4.8881922      2448.1381     -2.6136433    
     22200   1.4731342      5.0054337      2448.1381     -2.6127246    
     22300   1.5113848      4.7540853      2448.1381     -2.6138027    
     22400   1.4698877      5.06342        2448.1381     -2.6120045    
     22500   1.4798391      4.9163233      2448.1381     -2.6122777    
     22600   1.4855059      4.9745368      2448.1381     -2.6125873    
     22700   1.5237745      4.7151133      2448.1381     -2.6132402    
     22800   1.514715       4.7938777      2448.1381     -2.6125018    
     22900   1.4744589      5.0275715      2448.1381     -2.6121181    
     23000   1.501503       4.8879102      2448.1381     -2.6119131    
     23100   1.49416        4.8572766      2448.1381     -2.6125618    
     23200   1.4695222      5.0061511      2448.1381     -2.6117263    
     23300   1.480695       4.9797677      2448.1381     -2.6122925    
     23400   1.4871971      4.9495886      2448.1381     -2.6120486    
     23500   1.4960207      4.8641133      2448.1381     -2.6121341    
     23600   1.5004651      4.8682321      2448.1381     -2.6138428    
     23700   1.5160198      4.7326958      2448.1381     -2.6132351    
     23800   1.4841986      4.967652       2448.1381     -2.611084     
     23900   1.4856202      4.9441186      2448.1381     -2.6141873    
     24000   1.4905714      4.8640085      2448.1381     -2.6123992    
     24100   1.4838133      4.9033055      2448.1381     -2.6137339    
     24200   1.4556809      5.1040012      2448.1381     -2.6129375    
     24300   1.4800842      4.9605071      2448.1381     -2.6117535    
     24400   1.5019448      4.8699968      2448.1381     -2.6132507    
     24500   1.4803745      5.0032849      2448.1381     -2.6138144    
     24600   1.4749112      4.9894551      2448.1381     -2.6126991    
     24700   1.4910464      4.9330678      2448.1381     -2.6132957    
     24800   1.4680452      5.0592992      2448.1381     -2.6125113    
     24900   1.4780225      4.9878856      2448.1381     -2.6124066    
     25000   1.4868377      4.9979362      2448.1381     -2.6128425    
     25100   1.4861015      4.9170894      2448.1381     -2.6112115    
     25200   1.5012372      4.8510657      2448.1381     -2.6124766    
     25300   1.4840309      5.062421       2448.1381     -2.6113253    
     25400   1.4935979      4.9229235      2448.1381     -2.6123904    
     25500   1.485725       4.946915       2448.1381     -2.6124727    
     25600   1.4942582      4.8867293      2448.1381     -2.6135616    
     25700   1.5137308      4.774458       2448.1381     -2.6122287    
     25800   1.4849899      4.9736451      2448.1381     -2.6123216    
     25900   1.4916319      4.8888779      2448.1381     -2.6127424    
     26000   1.4667241      5.058399       2448.1381     -2.6130709    
     26100   1.497647       4.9330529      2448.1381     -2.6122103    
     26200   1.4876751      4.9616795      2448.1381     -2.612406     
     26300   1.4863153      4.8887832      2448.1381     -2.6130306    
     26400   1.4914603      4.9274322      2448.1381     -2.6127141    
     26500   1.474269       5.0408185      2448.1381     -2.6126611    
     26600   1.476676       4.9864905      2448.1381     -2.6125992    
     26700   1.4904059      4.8968005      2448.1381     -2.6135962    
     26800   1.4944945      4.8745599      2448.1381     -2.6123848    
     26900   1.4832586      4.963319       2448.1381     -2.6130065    
     27000   1.4523344      5.1999714      2448.1381     -2.6124774    
     27100   1.4683307      5.0727943      2448.1381     -2.6126538    
     27200   1.4878273      4.9743886      2448.1381     -2.6123016    
     27300   1.4920457      4.9165433      2448.1381     -2.6129128    
     27400   1.5102032      4.8196256      2448.1381     -2.6136529    
     27500   1.4794421      4.9751232      2448.1381     -2.6123955    
     27600   1.4934092      4.9046521      2448.1381     -2.6129805    
     27700   1.4724961      5.0747378      2448.1381     -2.6112748    
     27800   1.5016107      4.8601691      2448.1381     -2.6106169    
     27900   1.4714591      5.1265442      2448.1381     -2.6121379    
     28000   1.4911135      4.8579354      2448.1381     -2.6117427    
     28100   1.5189519      4.7420972      2448.1381     -2.6127833    
     28200   1.5047095      4.7894459      2448.1381     -2.6135921    
     28300   1.511647       4.8000678      2448.1381     -2.6132616    
     28400   1.4670183      5.0659042      2448.1381     -2.6116264    
     28500   1.4892131      4.9493077      2448.1381     -2.6128646    
     28600   1.5006277      4.8303299      2448.1381     -2.612672     
     28700   1.4786812      4.9972065      2448.1381     -2.613165     
     28800   1.4769775      5.0378257      2448.1381     -2.6127958    
     28900   1.5085305      4.8214243      2448.1381     -2.6129298    
     29000   1.5126043      4.7727324      2448.1381     -2.6134456    
     29100   1.5034396      4.8861498      2448.1381     -2.6132838    
     29200   1.520061       4.7619858      2448.1381     -2.612676     
     29300   1.4874822      5.0053106      2448.1381     -2.6133219    
     29400   1.4906358      4.9173643      2448.1381     -2.6133989    
     29500   1.4863456      4.9947321      2448.1381     -2.6127768    
     29600   1.4907933      4.9345151      2448.1381     -2.612228     
     29700   1.4875685      4.9393643      2448.1381     -2.6126222    
     29800   1.4905781      4.8881198      2448.1381     -2.611837     
     29900   1.5114766      4.8144211      2448.1381     -2.6120463    
     30000   1.4952836      4.9360858      2448.1381     -2.612978     
     30100   1.4820728      4.9933834      2448.1381     -2.6118766    
     30200   1.520753       4.766327       2448.1381     -2.6119794    
     30300   1.5044553      4.8627486      2448.1381     -2.6124908    
     30400   1.5405998      4.5774239      2448.1381     -2.6133399    
     30500   1.4845038      4.9630481      2448.1381     -2.6116552    
     30600   1.4954958      4.8708891      2448.1381     -2.6116145    
     30700   1.4931736      4.8723345      2448.1381     -2.6133542    
     30800   1.4930198      4.8863859      2448.1381     -2.6121183    
     30900   1.4733954      5.0292363      2448.1381     -2.6126844    
     31000   1.4658636      5.0951931      2448.1381     -2.6116267    
     31100   1.4794342      4.9421672      2448.1381     -2.6127656    
     31200   1.494577       4.9023927      2448.1381     -2.6125642    
     31300   1.5242764      4.7179805      2448.1381     -2.6130916    
     31400   1.4743654      5.0560437      2448.1381     -2.6119819    
     31500   1.509834       4.8016051      2448.1381     -2.6130099    
     31600   1.4838974      4.9477734      2448.1381     -2.6126338    
     31700   1.492993       4.8863733      2448.1381     -2.6124187    
     31800   1.47072        4.9961735      2448.1381     -2.6124319    
     31900   1.5047513      4.8369633      2448.1381     -2.61285      
     32000   1.4812378      4.9190317      2448.1381     -2.6123064    
     32100   1.4802853      4.9599788      2448.1381     -2.6120861    
     32200   1.4945518      4.9148761      2448.1381     -2.6127684    
     32300   1.4729128      4.9708046      2448.1381     -2.6129843    
     32400   1.5027222      4.8294296      2448.1381     -2.6127589    
     32500   1.4796074      4.9939164      2448.1381     -2.6126154    
     32600   1.5062411      4.8203706      2448.1381     -2.6122943    
     32700   1.4909336      4.8946788      2448.1381     -2.6116974    
     32800   1.5186601      4.7805257      2448.1381     -2.6130142    
     32900   1.5141553      4.7580768      2448.1381     -2.6127657    
     33000   1.484869       4.9476849      2448.1381     -2.6133502    
     33100   1.4965208      4.8688704      2448.1381     -2.6126465    
     33200   1.4759787      5.0273186      2448.1381     -2.6115462    
     33300   1.4923569      4.9111393      2448.1381     -2.6130776    
     33400   1.475162       4.9992181      2448.1381     -2.6117164    
     33500   1.5107424      4.7250633      2448.1381     -2.6121302    
     33600   1.5052502      4.8628952      2448.1381     -2.6131791    
     33700   1.4906343      4.850997       2448.1381     -2.6131631    
     33800   1.4703819      5.0583724      2448.1381     -2.6117838    
     33900   1.4847789      4.9528525      2448.1381     -2.6121556    
     34000   1.4805125      4.9468529      2448.1381     -2.6117098    
     34100   1.4797622      5.0064732      2448.1381     -2.6122274    
     34200   1.5059405      4.7647781      2448.1381     -2.6125667    
     34300   1.4984584      4.8987254      2448.1381     -2.6119512    
     34400   1.4899833      4.9804272      2448.1381     -2.6117662    
     34500   1.527434       4.6680377      2448.1381     -2.6132216    
     34600   1.4728273      4.9879798      2448.1381     -2.612603     
     34700   1.4762588      5.0240231      2448.1381     -2.6120784    
     34800   1.4791166      4.9545305      2448.1381     -2.6123204    
     34900   1.4763081      5.0055149      2448.1381     -2.6131428    
     35000   1.512392       4.794049       2448.1381     -2.6130284    
     35100   1.4603313      5.1272656      2448.1381     -2.611631     
     35200   1.4903399      4.9369646      2448.1381     -2.6127574    
     35300   1.4946042      4.9386527      2448.1381     -2.612669     
     35400   1.4981086      4.9037556      2448.1381     -2.6122518    
     35500   1.4982869      4.9333088      2448.1381     -2.6123004    
     35600   1.503317       4.8432357      2448.1381     -2.6124988    
     35700   1.4760491      4.9921779      2448.1381     -2.6133986    
     35800   1.5177876      4.8095408      2448.1381     -2.6119827    
     35900   1.5012759      4.9384365      2448.1381     -2.6122601    
     36000   1.4810281      4.9924707      2448.1381     -2.6121809    
     36100   1.4855112      4.9579114      2448.1381     -2.6134581    
     36200   1.5390594      4.6274824      2448.1381     -2.6125036    
     36300   1.4965733      4.9237696      2448.1381     -2.6122274    
     36400   1.4864301      4.9978738      2448.1381     -2.6115977    
     36500   1.4908144      4.874649       2448.1381     -2.6128618    
     36600   1.5059004      4.7904164      2448.1381     -2.6134438    
     36700   1.5044262      4.8254104      2448.1381     -2.6133563    
     36800   1.4743759      5.012386       2448.1381     -2.611683     
     36900   1.4869977      4.9113444      2448.1381     -2.6137965    
     37000   1.4779233      5.0483194      2448.1381     -2.6118936    
     37100   1.4830826      4.9457579      2448.1381     -2.6129754    
     37200   1.4821088      4.9841363      2448.1381     -2.6135344    
     37300   1.5131828      4.7564954      2448.1381     -2.6140846    
     37400   1.4730689      5.0151387      2448.1381     -2.6136731    
     37500   1.4748743      4.9973478      2448.1381     -2.611661     
     37600   1.5137968      4.7863824      2448.1381     -2.6124032    
     37700   1.5125536      4.8048245      2448.1381     -2.6129865    
     37800   1.4465598      5.180026       2448.1381     -2.6114661    
     37900   1.5112872      4.8541373      2448.1381     -2.6110521    
     38000   1.4526117      5.1785547      2448.1381     -2.6127544    
     38100   1.4586056      5.1134389      2448.1381     -2.612097     
     38200   1.5027326      4.8070358      2448.1381     -2.6131621    
     38300   1.4815218      4.9457376      2448.1381     -2.6131962    
     38400   1.483543       4.9571723      2448.1381     -2.6122389    
     38500   1.4827878      4.9943783      2448.1381     -2.6125667    
     38600   1.5064588      4.7774329      2448.1381     -2.6128285    
     38700   1.490523       4.9268192      2448.1381     -2.612995     
     38800   1.4855432      4.8869522      2448.1381     -2.6132453    
     38900   1.4787869      4.9655177      2448.1381     -2.6127833    
     39000   1.4748751      5.0260158      2448.1381     -2.612045     
     39100   1.495747       4.8708273      2448.1381     -2.6137389    
     39200   1.5014684      4.8901116      2448.1381     -2.6128697    
     39300   1.4521804      5.1941892      2448.1381     -2.6123693    
     39400   1.4872298      4.9598736      2448.1381     -2.6121584    
     39500   1.4665458      5.081462       2448.1381     -2.6129549    
     39600   1.4635505      5.0523124      2448.1381     -2.6135009    
     39700   1.4842453      4.9466833      2448.1381     -2.6132135    
     39800   1.4777591      5.0149389      2448.1381     -2.6118942    
     39900   1.4943369      4.9148145      2448.1381     -2.6124924    
     40000   1.4864115      4.9227109      2448.1381     -2.6120164    
     40100   1.4756646      4.9826159      2448.1381     -2.6123041    
     40200   1.4888414      4.9121333      2448.1381     -2.6131103    
     40300   1.4700465      4.9956479      2448.1381     -2.6130956    
     40400   1.4960048      4.898274       2448.1381     -2.6122734    
     40500   1.5324234      4.6513393      2448.1381     -2.613539     
     40600   1.4719806      4.9815889      2448.1381     -2.6121174    
     40700   1.4964107      4.8966681      2448.1381     -2.6128173    
     40800   1.4839141      4.9800765      2448.1381     -2.6127278    
     40900   1.502385       4.8562143      2448.1381     -2.612442     
     41000   1.5105052      4.8100528      2448.1381     -2.6125247    
     41100   1.4971655      4.8857663      2448.1381     -2.613194     
     41200   1.5103546      4.8255197      2448.1381     -2.6124926    
     41300   1.4911049      4.912129       2448.1381     -2.6133003    
     41400   1.4653689      5.0827252      2448.1381     -2.6124355    
     41500   1.4710028      5.0909312      2448.1381     -2.6118228    
     41600   1.510227       4.8216385      2448.1381     -2.6122107    
     41700   1.458615       5.1516396      2448.1381     -2.6115339    
     41800   1.4608064      5.0381003      2448.1381     -2.6122616    
     41900   1.4541403      5.0911872      2448.1381     -2.6125245    
     42000   1.4686412      5.0803644      2448.1381     -2.6125032    
     42100   1.4892237      4.9062024      2448.1381     -2.6122188    
     42200   1.5022032      4.8793447      2448.1381     -2.6126484    
     42300   1.5203586      4.6981355      2448.1381     -2.6126828    
     42400   1.4769886      5.0571419      2448.1381     -2.6111604    
     42500   1.5124763      4.7748636      2448.1381     -2.6130406    
     42600   1.5074719      4.8018576      2448.1381     -2.612917     
     42700   1.5010257      4.8894038      2448.1381     -2.6127587    
     42800   1.4828359      4.9856524      2448.1381     -2.6120926    
     42900   1.4717277      4.9989108      2448.1381     -2.6137837    
     43000   1.4893794      4.9397691      2448.1381     -2.6128085    
     43100   1.5215546      4.7092848      2448.1381     -2.6121844    
     43200   1.4719752      5.020998       2448.1381     -2.6130573    
     43300   1.5209891      4.7780762      2448.1381     -2.6116781    
     43400   1.4816212      5.0265547      2448.1381     -2.6134335    
     43500   1.5196706      4.7685075      2448.1381     -2.613419     
     43600   1.4873131      4.9289967      2448.1381     -2.6126485    
     43700   1.4737071      5.0064968      2448.1381     -2.6127129    
     43800   1.5016683      4.8038527      2448.1381     -2.6136002    
     43900   1.5057808      4.8301008      2448.1381     -2.6131198    
     44000   1.4763207      4.9866763      2448.1381     -2.6123541    
     44100   1.5123226      4.8000519      2448.1381     -2.6136726    
     44200   1.4771643      4.9710217      2448.1381     -2.61252      
     44300   1.5045776      4.8568485      2448.1381     -2.6124448    
     44400   1.5052731      4.8491159      2448.1381     -2.6124281    
     44500   1.4866928      4.9521422      2448.1381     -2.6124416    
     44600   1.4756638      5.0086063      2448.1381     -2.6128118    
     44700   1.4711672      4.9758872      2448.1381     -2.6123173    
     44800   1.5085961      4.7733088      2448.1381     -2.6119287    
     44900   1.5025067      4.8774364      2448.1381     -2.612829     
     45000   1.4962587      4.8258525      2448.1381     -2.6127101    
     45100   1.4697643      5.0296849      2448.1381     -2.6122464    
     45200   1.4844226      4.9735187      2448.1381     -2.6129942    
     45300   1.4836009      4.9376922      2448.1381     -2.6129915    
     45400   1.4999685      4.8693732      2448.1381     -2.6123727    
     45500   1.4859554      4.9614774      2448.1381     -2.6124671    
     45600   1.4901838      4.9158772      2448.1381     -2.6125335    
     45700   1.4855074      4.886427       2448.1381     -2.612387     
     45800   1.4974688      4.8440219      2448.1381     -2.6118518    
     45900   1.4646776      5.0960152      2448.1381     -2.6121638    
     46000   1.4841529      4.969743       2448.1381     -2.6123561    
     46100   1.5062713      4.8368209      2448.1381     -2.6112253    
     46200   1.4732972      5.0211653      2448.1381     -2.6125912    
     46300   1.4931311      4.8905314      2448.1381     -2.6129211    
     46400   1.4803372      5.0145869      2448.1381     -2.612185     
     46500   1.5112041      4.741195       2448.1381     -2.6141097    
     46600   1.5256207      4.74345        2448.1381     -2.6134751    
     46700   1.4999391      4.8684652      2448.1381     -2.612131     
     46800   1.4936546      4.8724945      2448.1381     -2.6120783    
     46900   1.5039871      4.906948       2448.1381     -2.6113927    
     47000   1.498388       4.8718405      2448.1381     -2.6121463    
     47100   1.482813       4.9570303      2448.1381     -2.6128561    
     47200   1.5243531      4.7050873      2448.1381     -2.6127991    
     47300   1.4712257      5.0584801      2448.1381     -2.6127188    
     47400   1.4586711      5.0411658      2448.1381     -2.6135833    
     47500   1.4808168      4.972752       2448.1381     -2.6122775    
     47600   1.4921606      4.8733415      2448.1381     -2.6128015    
     47700   1.4770904      5.0201901      2448.1381     -2.6126731    
     47800   1.4819668      4.9518882      2448.1381     -2.612118     
     47900   1.4912671      4.9325084      2448.1381     -2.6123593    
     48000   1.49236        4.9242763      2448.1381     -2.6126807    
     48100   1.5104833      4.7703244      2448.1381     -2.6123703    
     48200   1.5154444      4.7821587      2448.1381     -2.6128113    
     48300   1.4905534      4.9022418      2448.1381     -2.6122359    
     48400   1.4868519      4.8988683      2448.1381     -2.6128016    
     48500   1.5064906      4.8331536      2448.1381     -2.6124832    
     48600   1.4913644      4.9544672      2448.1381     -2.6121035    
     48700   1.4815992      5.0122861      2448.1381     -2.6138507    
     48800   1.504564       4.8122356      2448.1381     -2.6138606    
     48900   1.4795159      4.9782653      2448.1381     -2.6124906    
     49000   1.4717226      5.0510486      2448.1381     -2.6117684    
     49100   1.5117917      4.7775381      2448.1381     -2.6124364    
     49200   1.4968854      4.9162557      2448.1381     -2.6127943    
     49300   1.5004709      4.856187       2448.1381     -2.612379     
     49400   1.4803256      4.9587288      2448.1381     -2.6120243    
     49500   1.5115477      4.8314961      2448.1381     -2.6126151    
     49600   1.4751035      4.9931114      2448.1381     -2.6128354    
     49700   1.5211493      4.7415715      2448.1381     -2.6131357    
     49800   1.5172542      4.7880403      2448.1381     -2.61215      
     49900   1.494421       4.9189322      2448.1381     -2.6124671    
     50000   1.4643782      5.1088951      2448.1381     -2.6124231    
     50100   1.468861       5.007822       2448.1381     -2.6127685    
     50200   1.5016995      4.8796783      2448.1381     -2.6124548    
     50300   1.5146368      4.760205       2448.1381     -2.6126756    
     50400   1.4817515      5.0077077      2448.1381     -2.6122169    
     50500   1.5296796      4.6910152      2448.1381     -2.6130527    
     50600   1.4932932      4.913768       2448.1381     -2.6133269    
     50700   1.4742533      4.9983979      2448.1381     -2.6124351    
     50800   1.4601462      5.0441584      2448.1381     -2.6120886    
     50900   1.4860914      4.9389265      2448.1381     -2.6129292    
     51000   1.4812534      5.0082919      2448.1381     -2.6134861    
     51100   1.4741647      5.0204104      2448.1381     -2.6131345    
     51200   1.4839361      4.9454172      2448.1381     -2.6118249    
     51300   1.4882943      4.9441952      2448.1381     -2.6128666    
     51400   1.5233539      4.7668951      2448.1381     -2.6134298    
     51500   1.5228236      4.7430522      2448.1381     -2.6133985    
     51600   1.4878256      4.9453473      2448.1381     -2.6127256    
     51700   1.4924292      4.8864294      2448.1381     -2.6127876    
     51800   1.4573804      5.1135385      2448.1381     -2.6128065    
     51900   1.4966521      4.8901686      2448.1381     -2.6126395    
     52000   1.4931298      4.8350182      2448.1381     -2.6128395    
     52100   1.5018058      4.8143896      2448.1381     -2.6129649    
     52200   1.5057759      4.8664471      2448.1381     -2.6137908    
     52300   1.5056255      4.8372111      2448.1381     -2.6126788    
     52400   1.4733835      5.0542016      2448.1381     -2.6115198    
     52500   1.4967498      4.8433121      2448.1381     -2.6121221    
     52600   1.5091239      4.8090188      2448.1381     -2.6127509    
     52700   1.4603358      5.0852313      2448.1381     -2.611672     
     52800   1.4824861      4.969928       2448.1381     -2.6130637    
     52900   1.5069931      4.8214119      2448.1381     -2.6127094    
     53000   1.4675827      5.046688       2448.1381     -2.6119198    
     53100   1.4833848      4.934299       2448.1381     -2.613484     
     53200   1.4812163      4.9905643      2448.1381     -2.6118084    
     53300   1.490628       4.9079135      2448.1381     -2.6120105    
     53400   1.4845341      4.9558429      2448.1381     -2.6117117    
     53500   1.4661816      5.0881991      2448.1381     -2.6138127    
     53600   1.4700014      5.0599544      2448.1381     -2.6118977    
     53700   1.4950394      4.9014276      2448.1381     -2.612563     
     53800   1.4813615      5.0000705      2448.1381     -2.6127817    
     53900   1.4744273      4.9702416      2448.1381     -2.6127395    
     54000   1.4938428      4.9267772      2448.1381     -2.6118784    
     54100   1.4791004      5.041215       2448.1381     -2.6127151    
     54200   1.5168971      4.7775644      2448.1381     -2.6124481    
     54300   1.5117385      4.7676767      2448.1381     -2.6125428    
     54400   1.5028476      4.8379121      2448.1381     -2.6133729    
     54500   1.4675447      5.0520569      2448.1381     -2.6126987    
     54600   1.4802451      5.0054442      2448.1381     -2.6122255    
     54700   1.4929258      4.8870478      2448.1381     -2.6128069    
     54800   1.5145265      4.7457534      2448.1381     -2.6130462    
     54900   1.484079       4.9781999      2448.1381     -2.6127392    
     55000   1.4968288      4.8912577      2448.1381     -2.6116403    
     55100   1.4934942      4.8737266      2448.1381     -2.6124552    
     55200   1.4842995      4.9628115      2448.1381     -2.6115405    
     55300   1.5039119      4.8351144      2448.1381     -2.6131813    
     55400   1.4830736      4.922019       2448.1381     -2.6127254    
     55500   1.5046695      4.8260303      2448.1381     -2.6141413    
     55600   1.4923131      4.9097015      2448.1381     -2.6122501    
     55700   1.4822262      4.9406466      2448.1381     -2.6136777    
     55800   1.5105688      4.7684322      2448.1381     -2.6126735    
     55900   1.5052514      4.8537497      2448.1381     -2.6125291    
     56000   1.4805887      5.0099995      2448.1381     -2.6127201    
     56100   1.4967911      4.8919755      2448.1381     -2.6125564    
     56200   1.4814198      5.016347       2448.1381     -2.6123661    
     56300   1.5098742      4.7938985      2448.1381     -2.6123431    
     56400   1.4826617      4.9922169      2448.1381     -2.6107044    
     56500   1.5345457      4.6963536      2448.1381     -2.6131243    
     56600   1.4949564      4.8556591      2448.1381     -2.6126009    
     56700   1.460027       5.1537722      2448.1381     -2.6121586    
     56800   1.4971547      4.8514532      2448.1381     -2.6122847    
     56900   1.4841274      4.96022        2448.1381     -2.6123618    
     57000   1.5056244      4.8034447      2448.1381     -2.612344     
     57100   1.5038145      4.8443767      2448.1381     -2.6131757    
     57200   1.4962415      4.8947418      2448.1381     -2.612192     
     57300   1.4824496      4.9773903      2448.1381     -2.6130486    
     57400   1.5010098      4.9349578      2448.1381     -2.6120519    
     57500   1.5102009      4.7795228      2448.1381     -2.6122829    
     57600   1.4782528      4.9880886      2448.1381     -2.6127887    
     57700   1.5311268      4.638087       2448.1381     -2.6133222    
     57800   1.5002145      4.9022852      2448.1381     -2.6112699    
     57900   1.4970286      4.8599859      2448.1381     -2.6126185    
     58000   1.4961459      4.8993677      2448.1381     -2.6119263    
     58100   1.4801758      5.0113083      2448.1381     -2.6120579    
     58200   1.5031279      4.8351768      2448.1381     -2.6120137    
     58300   1.5003302      4.8938847      2448.1381     -2.6124259    
     58400   1.4667624      5.0944788      2448.1381     -2.611929     
     58500   1.4396259      5.2194927      2448.1381     -2.6117987    
     58600   1.5134173      4.7803202      2448.1381     -2.6127197    
     58700   1.4995777      4.8458643      2448.1381     -2.613264     
     58800   1.491887       4.9537144      2448.1381     -2.6125338    
     58900   1.5132211      4.8588466      2448.1381     -2.6128191    
     59000   1.4995561      4.8347037      2448.1381     -2.6138396    
     59100   1.469217       5.0757937      2448.1381     -2.6125488    
     59200   1.5181279      4.7494875      2448.1381     -2.6129681    
     59300   1.4901438      4.8990271      2448.1381     -2.6124601    
     59400   1.5249579      4.7227044      2448.1381     -2.6124482    
     59500   1.4998249      4.8482541      2448.1381     -2.6113335    
     59600   1.4825518      5.0171585      2448.1381     -2.6117342    
     59700   1.4770964      5.0226533      2448.1381     -2.6117898    
     59800   1.4864273      4.9093829      2448.1381     -2.6128273    
     59900   1.4953087      4.9240011      2448.1381     -2.6120179    
     60000   1.4941759      4.9236848      2448.1381     -2.6126925    
     60100   1.4666676      5.0627961      2448.1381     -2.6125736    
     60200   1.5178891      4.7347027      2448.1381     -2.6122741    
     60300   1.4717852      5.0161886      2448.1381     -2.6118149    
     60400   1.4604416      5.0614423      2448.1381     -2.611946     
     60500   1.4807923      4.9822841      2448.1381     -2.6132843    
     60600   1.4733266      5.0646416      2448.1381     -2.6119923    
     60700   1.4747447      5.0533767      2448.1381     -2.6115573    
     60800   1.4798187      5.0406676      2448.1381     -2.6125423    
     60900   1.4956392      4.8910968      2448.1381     -2.6120972    
     61000   1.4878693      4.9217644      2448.1381     -2.6125978    
     61100   1.5045817      4.8768597      2448.1381     -2.6129575    
     61200   1.4891681      4.9139063      2448.1381     -2.6121828    
     61300   1.4820496      4.9919958      2448.1381     -2.6116369    
     61400   1.5018673      4.8462627      2448.1381     -2.6123557    
     61500   1.4922872      4.8831141      2448.1381     -2.6130344    
     61600   1.485803       5.0296092      2448.1381     -2.6124812    
     61700   1.5057889      4.850974       2448.1381     -2.6124914    
     61800   1.505842       4.7778712      2448.1381     -2.613224     
     61900   1.4750083      5.0225036      2448.1381     -2.6116533    
     62000   1.4879452      4.9140048      2448.1381     -2.6127581    
     62100   1.4619382      5.1193982      2448.1381     -2.6123899    
     62200   1.4931935      4.9039407      2448.1381     -2.6133698    
     62300   1.5174923      4.716705       2448.1381     -2.6123669    
     62400   1.4936959      4.9221792      2448.1381     -2.612767     
     62500   1.4930706      4.9136842      2448.1381     -2.612322     
     62600   1.463956       5.0912253      2448.1381     -2.6122501    
     62700   1.5056011      4.81767        2448.1381     -2.6121636    
     62800   1.515398       4.7395824      2448.1381     -2.612467     
     62900   1.4798221      4.9879208      2448.1381     -2.6128993    
     63000   1.506237       4.8346888      2448.1381     -2.6126675    
     63100   1.4715174      5.0015301      2448.1381     -2.6117398    
     63200   1.5343297      4.6309338      2448.1381     -2.6123976    
     63300   1.4881757      4.9399138      2448.1381     -2.6127042    
     63400   1.4952683      4.880602       2448.1381     -2.6131209    
     63500   1.4771399      5.011571       2448.1381     -2.6121774    
     63600   1.4691498      5.0668356      2448.1381     -2.6115106    
     63700   1.5206764      4.7827592      2448.1381     -2.6124403    
     63800   1.5088577      4.8251909      2448.1381     -2.6115346    
     63900   1.4890213      4.8797038      2448.1381     -2.6121297    
     64000   1.4650482      5.0534267      2448.1381     -2.6110236    
     64100   1.4791746      4.943112       2448.1381     -2.6127914    
     64200   1.5207318      4.7547298      2448.1381     -2.6125824    
     64300   1.4687794      5.0210149      2448.1381     -2.6122502    
     64400   1.4885281      4.9265857      2448.1381     -2.6117769    
     64500   1.4829008      4.9845927      2448.1381     -2.6117627    
     64600   1.4922074      4.8700814      2448.1381     -2.6125933    
     64700   1.4851818      5.0028791      2448.1381     -2.6130767    
     64800   1.4981755      4.8967733      2448.1381     -2.6126697    
     64900   1.486409       4.9220812      2448.1381     -2.6129182    
     65000   1.5008368      4.8646157      2448.1381     -2.6125374    
     65100   1.5076469      4.8159971      2448.1381     -2.6127523    
     65200   1.4917392      4.9463826      2448.1381     -2.6124576    
     65300   1.5067803      4.8211359      2448.1381     -2.6119648    
     65400   1.5019988      4.9306181      2448.1381     -2.6118098    
     65500   1.4690694      5.0467803      2448.1381     -2.6123395    
     65600   1.482388       4.9320677      2448.1381     -2.6120478    
     65700   1.4745034      5.0229661      2448.1381     -2.6125643    
     65800   1.5100566      4.8032137      2448.1381     -2.6135824    
     65900   1.499995       4.8857333      2448.1381     -2.6131638    
     66000   1.4804745      4.9908528      2448.1381     -2.6122767    
     66100   1.5200324      4.7713927      2448.1381     -2.6127537    
     66200   1.5001292      4.8435269      2448.1381     -2.6132471    
     66300   1.4958149      4.9236764      2448.1381     -2.6130774    
     66400   1.5067726      4.8204254      2448.1381     -2.6121332    
     66500   1.5187566      4.7543107      2448.1381     -2.6123115    
     66600   1.4566418      5.109813       2448.1381     -2.6126573    
     66700   1.4862139      4.8786963      2448.1381     -2.6124582    
     66800   1.491217       4.962687       2448.1381     -2.6123034    
     66900   1.4964959      4.9405107      2448.1381     -2.6122128    
     67000   1.4827964      5.0093467      2448.1381     -2.6126184    
     67100   1.4971372      4.8874263      2448.1381     -2.6134005    
     67200   1.5019097      4.8862747      2448.1381     -2.6123122    
     67300   1.4882713      4.9187355      2448.1381     -2.6129968    
     67400   1.5111521      4.7907381      2448.1381     -2.6126629    
     67500   1.5103459      4.7645299      2448.1381     -2.6128868    
     67600   1.4523268      5.1634699      2448.1381     -2.6128593    
     67700   1.5006519      4.8275953      2448.1381     -2.6130199    
     67800   1.504208       4.8641727      2448.1381     -2.6122308    
     67900   1.5229518      4.7604951      2448.1381     -2.6121596    
     68000   1.4566841      5.0373442      2448.1381     -2.6129527    
     68100   1.4877334      4.9042857      2448.1381     -2.6118296    
     68200   1.5023598      4.8808793      2448.1381     -2.6125975    
     68300   1.4958967      4.8603807      2448.1381     -2.6120019    
     68400   1.4731367      5.052444       2448.1381     -2.6129139    
     68500   1.4823713      4.9449693      2448.1381     -2.6123124    
     68600   1.4963847      4.858758       2448.1381     -2.6119006    
     68700   1.489014       4.8827433      2448.1381     -2.6128458    
     68800   1.5011035      4.8143188      2448.1381     -2.6126542    
     68900   1.4952114      4.8333281      2448.1381     -2.6131561    
     69000   1.4663399      5.0528968      2448.1381     -2.6116659    
     69100   1.4922226      4.9263164      2448.1381     -2.6122134    
     69200   1.5008737      4.8213829      2448.1381     -2.6122852    
     69300   1.5018334      4.8560323      2448.1381     -2.6123286    
     69400   1.4758947      4.9413114      2448.1381     -2.6131744    
     69500   1.4855569      4.896019       2448.1381     -2.6125794    
     69600   1.4769758      5.0039623      2448.1381     -2.6125716    
     69700   1.5101874      4.8152631      2448.1381     -2.6127122    
     69800   1.4880046      4.9053162      2448.1381     -2.6131851    
     69900   1.4755774      4.9734212      2448.1381     -2.6126914    
     70000   1.5141368      4.7640135      2448.1381     -2.6128156    
     70100   1.4804193      4.9994846      2448.1381     -2.6114942    
     70200   1.4987505      4.8554827      2448.1381     -2.6120029    
     70300   1.4829127      4.9539933      2448.1381     -2.612326     
     70400   1.4525226      5.1613054      2448.1381     -2.6129499    
     70500   1.5103992      4.7812596      2448.1381     -2.6127046    
     70600   1.4975886      4.9070359      2448.1381     -2.6134459    
     70700   1.4679155      4.988427       2448.1381     -2.6127255    
     70800   1.4829045      4.9267851      2448.1381     -2.6123863    
     70900   1.4954548      4.8466686      2448.1381     -2.6120672    
     71000   1.5010093      4.8750856      2448.1381     -2.6123645    
     71100   1.5051239      4.8702592      2448.1381     -2.6128968    
     71200   1.4803068      5.0118977      2448.1381     -2.6118113    
     71300   1.5031896      4.7933166      2448.1381     -2.6132018    
     71400   1.5184768      4.7539121      2448.1381     -2.6133879    
     71500   1.4965381      4.8575635      2448.1381     -2.6124948    
     71600   1.4798625      4.9738371      2448.1381     -2.612111     
     71700   1.5000421      4.8914099      2448.1381     -2.6122061    
     71800   1.5098449      4.828318       2448.1381     -2.6132575    
     71900   1.4782946      5.0019511      2448.1381     -2.6135424    
     72000   1.5007149      4.8656114      2448.1381     -2.6119785    
     72100   1.4975029      4.904761       2448.1381     -2.6131475    
     72200   1.4675696      5.0528864      2448.1381     -2.6123829    
     72300   1.4890972      4.8971333      2448.1381     -2.6121975    
     72400   1.4881628      4.9498095      2448.1381     -2.6129134    
     72500   1.4842704      4.9613471      2448.1381     -2.6124162    
     72600   1.4909066      4.8936473      2448.1381     -2.6125623    
     72700   1.4982919      4.8733712      2448.1381     -2.6129668    
     72800   1.4957195      4.8767579      2448.1381     -2.6120165    
     72900   1.4770293      4.999016       2448.1381     -2.613077     
     73000   1.4743302      4.9937688      2448.1381     -2.6116709    
     73100   1.4965464      4.8520254      2448.1381     -2.6129678    
     73200   1.5108688      4.7578738      2448.1381     -2.6122194    
     73300   1.5062328      4.804572       2448.1381     -2.6129011    
     73400   1.4938515      4.8701334      2448.1381     -2.6136769    
     73500   1.4983596      4.9133104      2448.1381     -2.6127807    
     73600   1.4951094      4.8836655      2448.1381     -2.6127569    
     73700   1.4857761      4.9626895      2448.1381     -2.6122428    
     73800   1.4521955      5.0881632      2448.1381     -2.612822     
     73900   1.4983837      4.879857       2448.1381     -2.6114039    
     74000   1.5134007      4.8424202      2448.1381     -2.6133875    
     74100   1.4878195      4.888185       2448.1381     -2.6122232    
     74200   1.5168401      4.7159974      2448.1381     -2.6139706    
     74300   1.4897829      4.9318019      2448.1381     -2.612364     
     74400   1.4798045      4.939893       2448.1381     -2.6125266    
     74500   1.5175728      4.7614895      2448.1381     -2.6118074    
     74600   1.4922497      4.8993425      2448.1381     -2.6123039    
     74700   1.5140336      4.7991772      2448.1381     -2.6133036    
     74800   1.5011519      4.847032       2448.1381     -2.6121544    
     74900   1.5049278      4.8531814      2448.1381     -2.6123773    
     75000   1.4978577      4.8644654      2448.1381     -2.6123554    
     75100   1.4892868      4.9093632      2448.1381     -2.6130909    
     75200   1.5059508      4.8069267      2448.1381     -2.6129499    
     75300   1.4864842      4.9768416      2448.1381     -2.612159     
     75400   1.5071656      4.7938811      2448.1381     -2.6131738    
     75500   1.4831648      4.954105       2448.1381     -2.6120284    
     75600   1.5112492      4.7687931      2448.1381     -2.6133785    
     75700   1.506091       4.8342035      2448.1381     -2.6121059    
     75800   1.4916628      4.9060638      2448.1381     -2.6128489    
     75900   1.4960683      4.8608748      2448.1381     -2.6130366    
     76000   1.5008805      4.8167557      2448.1381     -2.6121026    
     76100   1.5097105      4.8142274      2448.1381     -2.6125029    
     76200   1.4812241      4.9679868      2448.1381     -2.6128786    
     76300   1.5077029      4.8395985      2448.1381     -2.6128232    
     76400   1.4905411      4.9813357      2448.1381     -2.6125094    
     76500   1.5197793      4.7455253      2448.1381     -2.6130247    
     76600   1.4658123      5.0437006      2448.1381     -2.6123613    
     76700   1.4920195      4.9671597      2448.1381     -2.6129595    
     76800   1.4912517      4.9354243      2448.1381     -2.6122629    
     76900   1.5069862      4.8431236      2448.1381     -2.6132612    
     77000   1.4673305      5.0498281      2448.1381     -2.612436     
     77100   1.4761527      5.0508677      2448.1381     -2.6125771    
     77200   1.5027257      4.8069406      2448.1381     -2.6124085    
     77300   1.4620217      5.1097743      2448.1381     -2.6120297    
     77400   1.488827       4.9346483      2448.1381     -2.6124704    
     77500   1.4939982      4.8792226      2448.1381     -2.6122425    
     77600   1.5027177      4.8658445      2448.1381     -2.6115221    
     77700   1.506317       4.791274       2448.1381     -2.6117005    
     77800   1.496513       4.8819021      2448.1381     -2.6127134    
     77900   1.5116918      4.7877453      2448.1381     -2.6127033    
     78000   1.489869       4.9469313      2448.1381     -2.6116236    
     78100   1.5058802      4.8408243      2448.1381     -2.6120268    
     78200   1.4909002      4.940473       2448.1381     -2.6121099    
     78300   1.5029021      4.834133       2448.1381     -2.6122034    
     78400   1.50847        4.8285249      2448.1381     -2.6124646    
     78500   1.5037423      4.8042089      2448.1381     -2.6117187    
     78600   1.485993       4.944688       2448.1381     -2.6127859    
     78700   1.47061        5.068199       2448.1381     -2.612083     
     78800   1.4993091      4.8546834      2448.1381     -2.611941     
     78900   1.4689125      5.056908       2448.1381     -2.6121132    
     79000   1.4506856      5.1753902      2448.1381     -2.6121446    
     79100   1.4922441      4.8807162      2448.1381     -2.6115617    
     79200   1.4979758      4.8937391      2448.1381     -2.6122222    
     79300   1.4912679      4.9399523      2448.1381     -2.6117528    
     79400   1.4953177      4.9315343      2448.1381     -2.6122041    
     79500   1.471974       4.9777531      2448.1381     -2.6128037    
     79600   1.505935       4.8452441      2448.1381     -2.6120516    
     79700   1.496186       4.8448596      2448.1381     -2.6127752    
     79800   1.4838407      4.9567593      2448.1381     -2.6128207    
     79900   1.4731202      5.0646985      2448.1381     -2.6121045    
     80000   1.5034526      4.7934975      2448.1381     -2.6127217    
     80100   1.4968659      4.9211233      2448.1381     -2.6128233    
     80200   1.4924304      4.9566862      2448.1381     -2.6116791    
     80300   1.4903165      4.9193786      2448.1381     -2.6126278    
     80400   1.4689548      5.0665022      2448.1381     -2.612237     
     80500   1.5050253      4.8360552      2448.1381     -2.6124067    
     80600   1.5015999      4.8758018      2448.1381     -2.6120796    
     80700   1.4953775      4.8999394      2448.1381     -2.6118523    
     80800   1.4693616      5.0332015      2448.1381     -2.6119076    
     80900   1.5008953      4.9094142      2448.1381     -2.6120364    
     81000   1.50428        4.8286732      2448.1381     -2.6128888    
     81100   1.4872459      5.0244772      2448.1381     -2.6126118    
     81200   1.5295908      4.6672572      2448.1381     -2.6120617    
     81300   1.4922107      4.8938423      2448.1381     -2.6120907    
     81400   1.4983827      4.9110756      2448.1381     -2.6127854    
     81500   1.4918302      4.8918644      2448.1381     -2.6136698    
     81600   1.5116315      4.8037107      2448.1381     -2.6127701    
     81700   1.4770764      4.9856714      2448.1381     -2.6120795    
     81800   1.4922142      4.9460458      2448.1381     -2.6118816    
     81900   1.5114655      4.8028445      2448.1381     -2.6122102    
     82000   1.4875798      4.91156        2448.1381     -2.6119735    
     82100   1.4991939      4.8381717      2448.1381     -2.611721     
     82200   1.4927166      4.8942065      2448.1381     -2.6131858    
     82300   1.4730063      5.0208213      2448.1381     -2.6116658    
     82400   1.5111825      4.7614473      2448.1381     -2.6126191    
     82500   1.4782643      5.0509092      2448.1381     -2.612069     
     82600   1.494936       4.8730512      2448.1381     -2.6126513    
     82700   1.5000538      4.8009804      2448.1381     -2.6129679    
     82800   1.5177022      4.7504615      2448.1381     -2.6121724    
     82900   1.4651824      5.0841582      2448.1381     -2.6133575    
     83000   1.4978771      4.9173446      2448.1381     -2.6126132    
     83100   1.4816728      5.0253913      2448.1381     -2.6118846    
     83200   1.4870456      4.9602553      2448.1381     -2.6123302    
     83300   1.4603504      5.1908321      2448.1381     -2.6117521    
     83400   1.4750388      5.0102086      2448.1381     -2.6123799    
     83500   1.4759846      4.9739391      2448.1381     -2.6128873    
     83600   1.5080556      4.8100343      2448.1381     -2.6131595    
     83700   1.4645629      5.0454028      2448.1381     -2.6121871    
     83800   1.4904407      4.9144262      2448.1381     -2.61195      
     83900   1.492868       4.8491872      2448.1381     -2.6122593    
     84000   1.4984653      4.841115       2448.1381     -2.612965     
     84100   1.5076591      4.8189519      2448.1381     -2.6126949    
     84200   1.5041277      4.8666759      2448.1381     -2.6127481    
     84300   1.4763204      5.0036387      2448.1381     -2.613253     
     84400   1.48624        4.8992358      2448.1381     -2.6119725    
     84500   1.4616308      5.140678       2448.1381     -2.6119107    
     84600   1.4619095      5.0589063      2448.1381     -2.6113603    
     84700   1.459308       5.085278       2448.1381     -2.6135622    
     84800   1.5114497      4.742057       2448.1381     -2.6124572    
     84900   1.4770135      5.0173528      2448.1381     -2.6116921    
     85000   1.4968153      4.9067971      2448.1381     -2.6129926    
     85100   1.5056886      4.8100856      2448.1381     -2.611919     
     85200   1.5226796      4.7171368      2448.1381     -2.613133     
     85300   1.4519556      5.1376394      2448.1381     -2.6119626    
     85400   1.4854297      4.9852463      2448.1381     -2.612092     
     85500   1.4946426      4.9439569      2448.1381     -2.6109062    
     85600   1.4744653      5.0510161      2448.1381     -2.6107205    
     85700   1.4983957      4.8303187      2448.1381     -2.6111123    
     85800   1.5272639      4.6881308      2448.1381     -2.6129819    
     85900   1.4814107      5.0002146      2448.1381     -2.6124668    
     86000   1.4807362      4.9417438      2448.1381     -2.6127796    
     86100   1.5080907      4.8370536      2448.1381     -2.6121831    
     86200   1.4788495      4.9570781      2448.1381     -2.6121713    
     86300   1.4993315      4.8788104      2448.1381     -2.6126013    
     86400   1.498665       4.8628867      2448.1381     -2.6124977    
     86500   1.4875956      4.9288501      2448.1381     -2.6130594    
     86600   1.4893194      4.9276002      2448.1381     -2.612146     
     86700   1.4954327      4.9212099      2448.1381     -2.6126569    
     86800   1.4966572      4.8820416      2448.1381     -2.6116345    
     86900   1.4802695      4.9808144      2448.1381     -2.6125211    
     87000   1.4647926      5.1161029      2448.1381     -2.6123185    
     87100   1.499609       4.8797578      2448.1381     -2.6124374    
     87200   1.4859351      4.9038742      2448.1381     -2.6126006    
     87300   1.4929585      4.8926702      2448.1381     -2.6121963    
     87400   1.5116773      4.7789485      2448.1381     -2.6123731    
     87500   1.4932646      4.9372788      2448.1381     -2.6117345    
     87600   1.4812281      4.9587931      2448.1381     -2.612555     
     87700   1.512724       4.8140838      2448.1381     -2.6122456    
     87800   1.4688051      5.0639775      2448.1381     -2.6126224    
     87900   1.5075828      4.8262123      2448.1381     -2.6119739    
     88000   1.4860818      4.9264301      2448.1381     -2.6116955    
     88100   1.493217       4.9136251      2448.1381     -2.6121584    
     88200   1.4936603      4.834591       2448.1381     -2.6122938    
     88300   1.4853627      4.9564432      2448.1381     -2.61283      
     88400   1.4698748      5.0306278      2448.1381     -2.6134783    
     88500   1.5063529      4.8390796      2448.1381     -2.6124851    
     88600   1.4803749      4.960626       2448.1381     -2.6136121    
     88700   1.4674366      5.0571773      2448.1381     -2.6122752    
     88800   1.4975361      4.8533116      2448.1381     -2.6114452    
     88900   1.5275909      4.6987271      2448.1381     -2.6130272    
     89000   1.5026777      4.8588982      2448.1381     -2.6122175    
     89100   1.4767875      5.0969883      2448.1381     -2.6118613    
     89200   1.5053391      4.8560397      2448.1381     -2.6131201    
     89300   1.4811803      4.9318403      2448.1381     -2.6123505    
     89400   1.478306       4.9710749      2448.1381     -2.6126513    
     89500   1.4887629      4.9039506      2448.1381     -2.6115868    
     89600   1.5150414      4.7648568      2448.1381     -2.6126762    
     89700   1.4880771      5.011913       2448.1381     -2.6123187    
     89800   1.4894824      4.9955784      2448.1381     -2.6120343    
     89900   1.5165825      4.7992435      2448.1381     -2.6128699    
     90000   1.4983238      4.8651652      2448.1381     -2.6119205    
     90100   1.5051937      4.8301956      2448.1381     -2.6124927    
     90200   1.4883332      4.9235596      2448.1381     -2.6117265    
     90300   1.5014003      4.8729499      2448.1381     -2.6121558    
     90400   1.4957336      4.8815201      2448.1381     -2.6122903    
     90500   1.4933513      4.9047424      2448.1381     -2.6127866    
     90600   1.4954239      4.9245982      2448.1381     -2.6117871    
     90700   1.5008901      4.8416494      2448.1381     -2.6117891    
     90800   1.5014919      4.8605823      2448.1381     -2.612122     
     90900   1.4931331      4.9002142      2448.1381     -2.6122594    
     91000   1.5146605      4.7379029      2448.1381     -2.6137125    
     91100   1.4878096      4.9177654      2448.1381     -2.6115786    
     91200   1.5031191      4.7834488      2448.1381     -2.6128994    
     91300   1.4594468      5.1236691      2448.1381     -2.6115064    
     91400   1.4892701      4.900285       2448.1381     -2.6131143    
     91500   1.4850115      4.9196318      2448.1381     -2.6129838    
     91600   1.4913236      4.8588732      2448.1381     -2.6126773    
     91700   1.4899159      4.9236805      2448.1381     -2.6125975    
     91800   1.462448       5.046547       2448.1381     -2.6129322    
     91900   1.457048       5.1047235      2448.1381     -2.6126024    
     92000   1.4933745      4.8985069      2448.1381     -2.611525     
     92100   1.4572219      5.1185131      2448.1381     -2.6120633    
     92200   1.4917446      4.9266093      2448.1381     -2.6129452    
     92300   1.4936626      4.889593       2448.1381     -2.6124973    
     92400   1.4966659      4.8815363      2448.1381     -2.6119222    
     92500   1.5070784      4.8137877      2448.1381     -2.61248      
     92600   1.495779       4.8917368      2448.1381     -2.6134704    
     92700   1.4988126      4.8383392      2448.1381     -2.6132259    
     92800   1.476819       4.988245       2448.1381     -2.6132204    
     92900   1.5024734      4.7978633      2448.1381     -2.6121021    
     93000   1.4907011      4.9043043      2448.1381     -2.6128085    
     93100   1.4808355      4.9887531      2448.1381     -2.6126815    
     93200   1.504275       4.8614155      2448.1381     -2.6127197    
     93300   1.5011093      4.8722965      2448.1381     -2.6131931    
     93400   1.4610274      5.1909894      2448.1381     -2.612111     
     93500   1.4898254      4.9528286      2448.1381     -2.6130393    
     93600   1.4944805      4.921039       2448.1381     -2.6119705    
     93700   1.4878095      4.9782674      2448.1381     -2.6133909    
     93800   1.5009239      4.8722469      2448.1381     -2.6133433    
     93900   1.5120212      4.7656292      2448.1381     -2.6128452    
     94000   1.4891464      4.9295112      2448.1381     -2.6121459    
     94100   1.4720512      5.0740192      2448.1381     -2.6125042    
     94200   1.500143       4.7821095      2448.1381     -2.6140325    
     94300   1.4983959      4.887478       2448.1381     -2.6128903    
     94400   1.4703803      5.0317454      2448.1381     -2.6122267    
     94500   1.4832597      4.9742902      2448.1381     -2.6121575    
     94600   1.4920844      4.9107637      2448.1381     -2.6128294    
     94700   1.4755436      5.0352408      2448.1381     -2.6121365    
     94800   1.4868553      4.9481977      2448.1381     -2.6122638    
     94900   1.5396629      4.6361853      2448.1381     -2.6117237    
     95000   1.4910474      4.9176268      2448.1381     -2.6121901    
     95100   1.4930241      4.9299253      2448.1381     -2.6132033    
     95200   1.4844317      4.9893177      2448.1381     -2.6124339    
     95300   1.4918147      4.8777985      2448.1381     -2.6121248    
     95400   1.5117491      4.7965467      2448.1381     -2.6136564    
     95500   1.4887075      4.8908751      2448.1381     -2.6122926    
     95600   1.4639513      5.0960734      2448.1381     -2.6121032    
     95700   1.4756485      5.0417027      2448.1381     -2.6121811    
     95800   1.4619007      5.0935281      2448.1381     -2.6128906    
     95900   1.5138944      4.782682       2448.1381     -2.6131378    
     96000   1.4870169      4.8979603      2448.1381     -2.6118375    
     96100   1.4899688      4.9384329      2448.1381     -2.6130858    
     96200   1.4975401      4.9277566      2448.1381     -2.6127362    
     96300   1.487002       4.9573152      2448.1381     -2.6128317    
     96400   1.4582262      5.1591942      2448.1381     -2.6122141    
     96500   1.5023125      4.8404748      2448.1381     -2.6126728    
     96600   1.49935        4.8230171      2448.1381     -2.6137181    
     96700   1.4528809      5.1693924      2448.1381     -2.6130659    
     96800   1.5033057      4.8805728      2448.1381     -2.6130427    
     96900   1.4946042      4.87489        2448.1381     -2.6130573    
     97000   1.4853814      4.9326399      2448.1381     -2.6121115    
     97100   1.491611       4.8973017      2448.1381     -2.6124141    
     97200   1.4638126      5.1037097      2448.1381     -2.6122369    
     97300   1.5281485      4.7040833      2448.1381     -2.6127406    
     97400   1.4948206      4.8522142      2448.1381     -2.6128223    
     97500   1.4828991      4.9401181      2448.1381     -2.6127813    
     97600   1.4846251      4.9356999      2448.1381     -2.6128073    
     97700   1.479408       4.9603819      2448.1381     -2.6123751    
     97800   1.5118088      4.8428053      2448.1381     -2.6121931    
     97900   1.4990641      4.8453276      2448.1381     -2.6119257    
     98000   1.4777037      5.0273097      2448.1381     -2.6127934    
     98100   1.4892402      4.9423072      2448.1381     -2.612051     
     98200   1.4932558      4.9743294      2448.1381     -2.612772     
     98300   1.4686072      5.0214595      2448.1381     -2.6134762    
     98400   1.4695159      5.0603928      2448.1381     -2.61301      
     98500   1.4965522      4.867774       2448.1381     -2.6123345    
     98600   1.4619311      5.0711464      2448.1381     -2.6125844    
     98700   1.5054543      4.8073397      2448.1381     -2.6128384    
     98800   1.4922052      4.9017478      2448.1381     -2.6132211    
     98900   1.4772276      5.0077247      2448.1381     -2.6121579    
     99000   1.4725479      5.034803       2448.1381     -2.61243      
     99100   1.4930409      4.9102528      2448.1381     -2.6120811    
     99200   1.4824483      4.908191       2448.1381     -2.6126245    
     99300   1.4648725      5.0565414      2448.1381     -2.612661     
     99400   1.4568306      5.0610999      2448.1381     -2.6124718    
     99500   1.49373        4.8633332      2448.1381     -2.6128945    
     99600   1.5169039      4.7341583      2448.1381     -2.6128159    
     99700   1.4744988      5.0099935      2448.1381     -2.6126711    
     99800   1.4858666      4.9774996      2448.1381     -2.6124678    
     99900   1.4788106      4.9626468      2448.1381     -2.6132496    
    100000   1.4775592      4.9947382      2448.1381     -2.6127459    
Loop time of 318.122 on 1 procs for 80000 steps with 2048 atoms

Performance: 108637.729 tau/day, 251.476 timesteps/s, 515.023 katom-step/s
99.0% CPU use with 1 MPI tasks x 1 OpenMP threads

MPI task timing breakdown:
Section |  min time  |  avg time  |  max time  |%varavg| %total
---------------------------------------------------------------
Pair    | 202.96     | 202.96     | 202.96     |   0.0 | 63.80
Neigh   | 79.603     | 79.603     | 79.603     |   0.0 | 25.02
Comm    | 6.3548     | 6.3548     | 6.3548     |   0.0 |  2.00
Output  | 20.04      | 20.04      | 20.04      |   0.0 |  6.30
Modify  | 6.7974     | 6.7974     | 6.7974     |   0.0 |  2.14
Other   |            | 2.367      |            |       |  0.74

Nlocal:           2048 ave        2048 max        2048 min
Histogram: 1 0 0 0 0 0 0 0 0 0
Nghost:           3775 ave        3775 max        3775 min
Histogram: 1 0 0 0 0 0 0 0 0 0
Neighs:          76838 ave       76838 max       76838 min
Histogram: 1 0 0 0 0 0 0 0 0 0

Total # of neighbors = 76838
Ave neighs/atom = 37.518555
Neighbor list builds = 12892
Dangerous builds = 0
unfix integrate2
Total wall time: 0:06:35
