LAMMPS (2 Apr 2025)
OMP_NUM_THREADS environment is not set. Defaulting to 1 thread. (src/comm.cpp:99)
  using 1 OpenMP thread(s) per MPI task
# Define Variables
variable temp equal 1.5
variable rdf_bins equal 50
variable sim_run equal 1

# Define the Units
units lj
atom_style atomic

# Create a Simulation Box
read_data Ar.data
Reading data file ...
  orthogonal box = (0 0 0) to (42.08 42.08 42.08)
  1 by 1 by 1 MPI processor grid
  reading atoms ...
  2048 atoms
  read_data CPU = 0.063 seconds

# Assign the Group to Argon and Assign it's mass
group Ar type 1
2048 atoms in group Ar
mass 1 1.0

# Define the Potential of the Simulation
pair_style lj/cut 2.5
pair_coeff 1 1 1.0 1.0

# Set the initial velocity
velocity all create ${temp} 54343
velocity all create 1.5 54343

# Define the Thermodynamics Output
thermo 100
thermo_style custom step temp press vol etotal
timestep 0.005

# Compute the RDF
compute RDF all rdf ${rdf_bins}
compute RDF all rdf 50

# Run the Simulation
fix integrate1 all npt temp ${temp} ${temp} 1 iso 5 5 1
fix integrate1 all npt temp 1.5 ${temp} 1 iso 5 5 1
fix integrate1 all npt temp 1.5 1.5 1 iso 5 5 1
fix 1 all ave/time 100 10 1000 c_RDF[*] file RDF_Pre_Sim${sim_run}.data mode vector
fix 1 all ave/time 100 10 1000 c_RDF[*] file RDF_Pre_Sim1.data mode vector


# Run the Simulation
run 20000
Generated 0 of 0 mixed pair_coeff terms from geometric mixing rule
Neighbor list info ...
  update: every = 1 steps, delay = 0 steps, check = yes
  max neighbors/atom: 2000, page size: 100000
  master list distance cutoff = 2.8
  ghost atom cutoff = 2.8
  binsize = 1.4, bins = 31 31 31
  2 neighbor lists, perpetual/occasional/extra = 1 1 0
  (1) pair lj/cut, perpetual
      attributes: half, newton on
      pair build: half/bin/atomonly/newton
      stencil: half/bin/3d
      bin: standard
  (2) compute rdf, occasional, copy from (1)
      attributes: half, newton on
      pair build: copy
      stencil: none
      bin: none
Per MPI rank memory allocation (min/avg/max) = 3.287 | 3.287 | 3.287 Mbytes
   Step          Temp          Press          Volume         TotEng    
         0   1.5            0.041208035    74512.167      2.2489014    
       100   2.9584212      0.25629223     26816.409      4.222596     
       200   4.1210857      0.60515021     15273.463      5.5466898    
       300   4.5825455      1.0731064      10328.991      5.9390921    
       400   4.5932081      1.5349206      7708.1454      5.6297296    
       500   4.3641472      2.0002531      6145.7045      4.9412439    
       600   3.9433239      2.6874136      5119.2155      4.0774458    
       700   3.5938619      3.0807353      4425.9816      3.1931611    
       800   3.2952532      3.3232888      3915.0637      2.3351506    
       900   2.9415347      3.7784608      3558.0397      1.5394074    
      1000   2.6806687      4.0124501      3281.9911      0.82944064   
      1100   2.4906519      4.1011514      3080.5195      0.1859459    
      1200   2.2667895      4.3580447      2922.6026     -0.38019963   
      1300   2.0769157      4.4973318      2801.0927     -0.88329103   
      1400   1.9116694      4.6125826      2703.8981     -1.3187229    
      1500   1.75212        4.8384198      2632.8666     -1.6989346    
      1600   1.6737843      4.9820889      2559.3771     -1.9895792    
      1700   1.6215192      4.7222317      2511.4108     -2.262672     
      1800   1.5156115      4.7745345      2481.6623     -2.5039632    
      1900   1.4604154      4.9056327      2448.1717     -2.6584588    
      2000   1.4361425      4.8668123      2424.0198     -2.7737368    
      2100   1.3886771      5.1131333      2410.1448     -2.8514535    
      2200   1.400656       5.1423577      2397.2304     -2.8661028    
      2300   1.4233665      5.0338327      2399.7166     -2.8490257    
      2400   1.4214021      5.1523835      2409.8339     -2.7906617    
      2500   1.47329        5.1328569      2420.2631     -2.6925264    
      2600   1.5227547      5.0304049      2435.8335     -2.5908058    
      2700   1.5179232      4.870678       2462.0361     -2.5302006    
      2800   1.5466462      5.076249       2464.0803     -2.4413572    
      2900   1.5770656      4.9604702      2472.9479     -2.4083227    
      3000   1.5876564      4.8625215      2475.7841     -2.4115661    
      3100   1.4926705      5.1178439      2476.646      -2.4655992    
      3200   1.5365501      4.9133129      2459.753      -2.5076978    
      3300   1.5174833      5.0419277      2444.1276     -2.565759     
      3400   1.4852695      5.0083031      2438.2027     -2.6429129    
      3500   1.4625322      4.7344763      2439.6306     -2.7252403    
      3600   1.4302397      5.0860296      2424.4104     -2.743494     
      3700   1.4594235      4.7035969      2429.004      -2.7721962    
      3800   1.4354075      4.9014859      2431.1164     -2.7529944    
      3900   1.4862581      5.07566        2423.7559     -2.6703603    
      4000   1.4745608      5.3352344      2431.5297     -2.6054717    
      4100   1.5522348      5.0549209      2439.0064     -2.5359148    
      4200   1.5044569      5.1008771      2462.3335     -2.5179869    
      4300   1.5375412      4.7854958      2471.3349     -2.4859734    
      4400   1.5455162      4.6994434      2476.3279     -2.4821047    
      4500   1.5222034      4.9257011      2471.2446     -2.4961332    
      4600   1.5536094      5.1467584      2446.508      -2.4882198    
      4700   1.5149359      4.955197       2451.4203     -2.5646781    
      4800   1.4654029      4.8503631      2454.8262     -2.638098     
      4900   1.4851484      5.027741       2432.6151     -2.6421844    
      5000   1.4796928      4.9280163      2430.1069     -2.6851596    
      5100   1.447434       5.04977        2427.7531     -2.7123871    
      5200   1.4797698      5.0471703      2421.2863     -2.6958706    
      5300   1.4634817      5.0957102      2427.6618     -2.6806831    
      5400   1.477055       4.9440819      2437.2144     -2.6566431    
      5500   1.4986024      5.056256       2439.8244     -2.6045857    
      5600   1.501297       5.0592554      2447.9254     -2.5681113    
      5700   1.4903587      5.0282609      2458.2324     -2.5483062    
      5800   1.5312856      4.9419449      2458.7681     -2.523565     
      5900   1.5202875      4.989982       2458.9165     -2.5183482    
      6000   1.4991279      4.7040662      2474.1624     -2.5667223    
      6100   1.482959       4.5439397      2478.0851     -2.5964612    
      6200   1.4905971      5.0463988      2452.3938     -2.5691175    
      6300   1.5393818      5.2460773      2425.7354     -2.5505252    
      6400   1.4819482      4.9801781      2440.4203     -2.6388312    
      6500   1.4692604      5.0884749      2430.8878     -2.6583443    
      6600   1.4808504      5.0704401      2424.2842     -2.6701925    
      6700   1.4603585      5.1230941      2424.3671     -2.6820011    
      6800   1.4506556      4.8552461      2441.1203     -2.716175     
      6900   1.4857638      4.8526938      2434.6312     -2.6746208    
      7000   1.5091202      5.2635131      2422.2482     -2.6016097    
      7100   1.4823913      5.1469115      2437.8085     -2.5957342    
      7200   1.5413244      4.9160396      2441.7618     -2.5719406    
      7300   1.4771721      4.8897569      2460.1777     -2.5900385    
      7400   1.4851883      4.5634158      2473.8851     -2.6072437    
      7500   1.5295774      4.8868366      2451.0559     -2.5606024    
      7600   1.516253       5.1730753      2438.6499     -2.5523062    
      7700   1.5219543      5.1682283      2432.9299     -2.572404     
      7800   1.4724151      5.2047934      2440.5524     -2.6215395    
      7900   1.4880394      5.0533119      2436.0878     -2.6340467    
      8000   1.4889935      5.1694217      2431.029      -2.6292088    
      8100   1.4819069      5.2636155      2430.3845     -2.6181801    
      8200   1.49204        4.976796       2440.6709     -2.6270025    
      8300   1.5073528      4.9760047      2439.4111     -2.6023172    
      8400   1.4866161      5.1188504      2440.8669     -2.5912421    
      8500   1.4683979      4.9940549      2450.8223     -2.6072162    
      8600   1.5006395      5.090671       2444.3597     -2.5781328    
      8700   1.5306851      5.2737607      2433.3986     -2.5387142    
      8800   1.5232755      4.951864       2446.553      -2.5660611    
      8900   1.5058414      4.7253915      2456.2055     -2.5905006    
      9000   1.4855769      4.6887993      2460.8485     -2.6133058    
      9100   1.4941903      5.0073381      2445.1261     -2.5976653    
      9200   1.4903233      5.0313393      2441.565      -2.6094593    
      9300   1.514256       4.8502108      2440.0171     -2.6208777    
      9400   1.4822008      4.9561049      2441.9556     -2.6370647    
      9500   1.4666935      4.915598       2443.3361     -2.6437558    
      9600   1.4734584      4.8661917      2445.7851     -2.6539951    
      9700   1.5259859      4.8927341      2432.4123     -2.6224937    
      9800   1.4932938      4.8922496      2442.9266     -2.6404982    
      9900   1.4798057      4.9182303      2445.0148     -2.629593     
     10000   1.5311777      4.6467337      2447.7277     -2.6179652    
     10100   1.5123347      5.0773796      2441.6587     -2.5836124    
     10200   1.4965208      4.7962331      2457.4219     -2.5945574    
     10300   1.4892827      4.6742381      2468.5582     -2.6002886    
     10400   1.5480548      5.054665       2441.3826     -2.5271645    
     10500   1.5463575      5.3583386      2428.8893     -2.5097786    
     10600   1.4440976      5.6055123      2438.3132     -2.5663994    
     10700   1.4957928      4.6063401      2454.2704     -2.6382244    
     10800   1.4740122      4.667047       2455.0099     -2.6660143    
     10900   1.4801993      4.7688068      2442.5705     -2.6615136    
     11000   1.460356       5.1919561      2432.1422     -2.6486267    
     11100   1.457957       5.1388408      2433.4518     -2.651552     
     11200   1.4812591      4.8547758      2442.3076     -2.6551578    
     11300   1.5084912      5.0310368      2434.2401     -2.6104957    
     11400   1.5210889      4.9451347      2441.1951     -2.5982128    
     11500   1.5264843      4.86861        2447.5293     -2.5835431    
     11600   1.4796877      4.5232253      2475.0201     -2.6240539    
     11700   1.4770395      4.784594       2467.735      -2.5880783    
     11800   1.550037       5.0690049      2443.8671     -2.5202008    
     11900   1.5379818      5.1896077      2439.2787     -2.5145402    
     12000   1.4985406      4.9798076      2451.0864     -2.5710356    
     12100   1.5108248      4.8120288      2449.3147     -2.6084916    
     12200   1.4875257      4.9091338      2441.8407     -2.6342686    
     12300   1.4683917      5.0548346      2435.2061     -2.658841     
     12400   1.4546298      5.2808256      2423.5726     -2.6653958    
     12500   1.4626469      5.3073764      2417.8929     -2.665099     
     12600   1.4575643      4.959154       2433.9876     -2.6948162    
     12700   1.464945       5.0563904      2432.8476     -2.666908     
     12800   1.5327156      4.9130887      2429.6847     -2.6218909    
     12900   1.5098148      5.1984165      2430.7146     -2.5891759    
     13000   1.4753945      5.0429384      2449.8456     -2.5985823    
     13100   1.5321482      5.095068       2442.3022     -2.5496734    
     13200   1.5516582      5.1198642      2438.1642     -2.5158795    
     13300   1.4998059      5.1074         2454.0522     -2.5433427    
     13400   1.4815499      4.8257537      2467.0116     -2.5819715    
     13500   1.4924428      4.8772387      2454.0504     -2.5892567    
     13600   1.5067388      4.9358406      2440.9523     -2.6046849    
     13700   1.4902504      4.9383742      2437.4354     -2.64358      
     13800   1.4735356      5.0254119      2432.9466     -2.6720544    
     13900   1.4776495      5.2017631      2421.4071     -2.6707677    
     14000   1.4615079      5.1581568      2425.2518     -2.6928054    
     14100   1.4690064      5.1285646      2424.0421     -2.6755069    
     14200   1.5140281      4.6631607      2437.9367     -2.6686196    
     14300   1.5214694      4.8478756      2437.434      -2.6201651    
     14400   1.4948546      5.0602168      2440.5555     -2.5875477    
     14500   1.5196589      5.0256408      2444.0885     -2.5683488    
     14600   1.5137409      4.9725313      2452.383      -2.5664045    
     14700   1.4862761      4.7777958      2466.0058     -2.5884064    
     14800   1.5479382      5.0431731      2442.2015     -2.5265134    
     14900   1.5545634      5.2421517      2434.7016     -2.5027619    
     15000   1.4849804      4.9073304      2460.9702     -2.5787133    
     15100   1.5039365      4.734071       2457.8269     -2.594284     
     15200   1.5021633      5.0325619      2443.2509     -2.5947992    
     15300   1.4872673      5.2528234      2432.0643     -2.5978928    
     15400   1.4836774      5.0671552      2435.7213     -2.6266294    
     15500   1.49001        4.6981484      2447.3081     -2.6583354    
     15600   1.4288876      4.7032015      2463.1767     -2.6891615    
     15700   1.521172       4.8678241      2436.7778     -2.6133169    
     15800   1.4867381      5.1412217      2438.045      -2.6000639    
     15900   1.4701366      5.1017999      2449.0844     -2.6038271    
     16000   1.5113397      5.0571579      2444.8147     -2.5656459    
     16100   1.5378982      5.0574271      2442.6804     -2.5397811    
     16200   1.5561779      4.9522873      2442.3645     -2.5347112    
     16300   1.4714719      5.0099004      2458.0227     -2.5873092    
     16400   1.4696039      4.7236085      2463.8603     -2.6284103    
     16500   1.5307961      5.3157751      2423.7512     -2.5566885    
     16600   1.4935981      5.348327       2426.7172     -2.5889566    
     16700   1.492268       5.0369474      2433.2805     -2.6362051    
     16800   1.4699457      5.2840749      2425.8799     -2.6389402    
     16900   1.4854348      5.1475915      2426.8528     -2.6443592    
     17000   1.4565472      4.7950623      2448.8176     -2.6819964    
     17100   1.4911127      4.8529951      2446.2555     -2.6413392    
     17200   1.5150197      5.0999075      2436.5711     -2.5857183    
     17300   1.5477957      4.83675        2439.4566     -2.5636888    
     17400   1.4963678      5.1252407      2446.8945     -2.5619892    
     17500   1.495265       4.8176482      2459.1997     -2.5758771    
     17600   1.5171418      4.708853       2463.3429     -2.5757982    
     17700   1.5559245      4.9721897      2444.3965     -2.5291739    
     17800   1.5044613      4.9993035      2453.6967     -2.5673047    
     17900   1.5460311      5.3266444      2426.1692     -2.5232909    
     18000   1.5145509      5.1221782      2435.1705     -2.5779064    
     18100   1.4618726      4.6917137      2454.5292     -2.6635874    
     18200   1.4479794      4.7501189      2453.4817     -2.6924102    
     18300   1.4745467      5.0540732      2432.4567     -2.6619988    
     18400   1.5085857      4.9006761      2429.3578     -2.6566718    
     18500   1.5072684      4.9568406      2432.2968     -2.6436424    
     18600   1.473527       5.3061479      2433.0767     -2.6172763    
     18700   1.512707       5.1578993      2434.5294     -2.5891774    
     18800   1.5213976      5.0110407      2441.6331     -2.5783377    
     18900   1.4796192      4.8636712      2457.8496     -2.6006076    
     19000   1.5219285      4.7417318      2454.0323     -2.5860349    
     19100   1.509223       5.1454604      2441.6662     -2.5677935    
     19200   1.5102905      5.1936146      2435.1811     -2.5733503    
     19300   1.5332532      4.9764787      2433.6091     -2.5921099    
     19400   1.4578801      4.7481726      2454.7231     -2.6664549    
     19500   1.4560757      5.051936       2441.5517     -2.6544819    
     19600   1.5015773      5.1212492      2427.129      -2.626893     
     19700   1.4847255      5.2572714      2426.3219     -2.6210781    
     19800   1.4822392      5.0244121      2437.1862     -2.6357434    
     19900   1.485439       5.0702549      2436.9798     -2.6136834    
     20000   1.4636102      5.044266       2448.1381     -2.6126511    
Loop time of 76.9927 on 1 procs for 20000 steps with 2048 atoms

Performance: 112218.396 tau/day, 259.765 timesteps/s, 531.998 katom-step/s
99.9% CPU use with 1 MPI tasks x 1 OpenMP threads

MPI task timing breakdown:
Section |  min time  |  avg time  |  max time  |%varavg| %total
---------------------------------------------------------------
Pair    | 50.327     | 50.327     | 50.327     |   0.0 | 65.37
Neigh   | 20.647     | 20.647     | 20.647     |   0.0 | 26.82
Comm    | 1.602      | 1.602      | 1.602      |   0.0 |  2.08
Output  | 0.0054566  | 0.0054566  | 0.0054566  |   0.0 |  0.01
Modify  | 3.8206     | 3.8206     | 3.8206     |   0.0 |  4.96
Other   |            | 0.5907     |            |       |  0.77

Nlocal:           2048 ave        2048 max        2048 min
Histogram: 1 0 0 0 0 0 0 0 0 0
Nghost:           3744 ave        3744 max        3744 min
Histogram: 1 0 0 0 0 0 0 0 0 0
Neighs:          76801 ave       76801 max       76801 min
Histogram: 1 0 0 0 0 0 0 0 0 0

Total # of neighbors = 76801
Ave neighs/atom = 37.500488
Neighbor list builds = 3536
Dangerous builds = 76
unfix integrate1

# Output the RDF Data to the Dump Folder
fix integrate2 all nve
fix 1 all ave/time 100 10 1000 c_RDF[*] file RDF_Sim${sim_run}.data mode vector
fix 1 all ave/time 100 10 1000 c_RDF[*] file RDF_Sim1.data mode vector

# Dump the files for the positions of the Atoms every 100 Frames
dump            myDump1 all custom 100 Dumpfiles/_*.dump id type element x y z vx vy vz fx fy fz
dump_modify 	myDump1 element Ar

# Run the Simulation
run 80000
Generated 0 of 0 mixed pair_coeff terms from geometric mixing rule
Per MPI rank memory allocation (min/avg/max) = 3.762 | 3.762 | 3.762 Mbytes
   Step          Temp          Press          Volume         TotEng    
     20000   1.4636102      5.044266       2448.1381     -2.6126511    
     20100   1.5043292      4.8716221      2448.1381     -2.6123284    
     20200   1.4791878      4.9677809      2448.1381     -2.6135001    
     20300   1.492769       4.9228628      2448.1381     -2.6118364    
     20400   1.5013368      4.8392267      2448.1381     -2.6129171    
     20500   1.4879022      4.9040457      2448.1381     -2.6129058    
     20600   1.4733465      5.0449415      2448.1381     -2.6125042    
     20700   1.5039696      4.8180365      2448.1381     -2.6131698    
     20800   1.5005804      4.8526984      2448.1381     -2.6129669    
     20900   1.4579458      5.1254261      2448.1381     -2.6127827    
     21000   1.4993565      4.8563363      2448.1381     -2.6129774    
     21100   1.4666869      5.0419599      2448.1381     -2.6123823    
     21200   1.4603806      5.1186173      2448.1381     -2.6114256    
     21300   1.4999186      4.8809758      2448.1381     -2.6128424    
     21400   1.4831371      4.9253628      2448.1381     -2.6128723    
     21500   1.4793818      5.0080036      2448.1381     -2.6127958    
     21600   1.4968553      4.909453       2448.1381     -2.6122943    
     21700   1.5086496      4.8516904      2448.1381     -2.6120896    
     21800   1.4518229      5.1546766      2448.1381     -2.6131037    
     21900   1.4704977      5.0656261      2448.1381     -2.6115483    
     22000   1.5039235      4.9005514      2448.1381     -2.6135874    
     22100   1.4944781      4.8881922      2448.1381     -2.6136433    
     22200   1.4731342      5.0054337      2448.1381     -2.6127246    
     22300   1.5113848      4.7540853      2448.1381     -2.6138027    
     22400   1.4698877      5.06342        2448.1381     -2.6120045    
     22500   1.4798391      4.9163233      2448.1381     -2.6122777    
     22600   1.4855059      4.9745368      2448.1381     -2.6125873    
     22700   1.5237745      4.7151133      2448.1381     -2.6132402    
     22800   1.514715       4.7938777      2448.1381     -2.6125018    
     22900   1.4744589      5.0275715      2448.1381     -2.6121181    
     23000   1.501503       4.8879102      2448.1381     -2.6119131    
     23100   1.49416        4.8572766      2448.1381     -2.6125618    
     23200   1.4695222      5.0061511      2448.1381     -2.6117263    
     23300   1.480695       4.9797677      2448.1381     -2.6122925    
     23400   1.4871971      4.9495886      2448.1381     -2.6120486    
     23500   1.4960207      4.8641133      2448.1381     -2.6121341    
     23600   1.5004651      4.8682321      2448.1381     -2.6138428    
     23700   1.5160198      4.7326958      2448.1381     -2.6132351    
     23800   1.4841986      4.967652       2448.1381     -2.611084     
     23900   1.4856202      4.9441186      2448.1381     -2.6141873    
     24000   1.4905714      4.8640085      2448.1381     -2.6123992    
     24100   1.4838133      4.9033055      2448.1381     -2.6137339    
     24200   1.4556809      5.1040012      2448.1381     -2.6129375    
     24300   1.4800842      4.9605071      2448.1381     -2.6117535    
     24400   1.5019448      4.8699968      2448.1381     -2.6132507    
     24500   1.4803745      5.0032849      2448.1381     -2.6138144    
     24600   1.4749112      4.9894551      2448.1381     -2.6126991    
     24700   1.4910464      4.9330678      2448.1381     -2.6132957    
     24800   1.4680452      5.0592992      2448.1381     -2.6125113    
     24900   1.4780225      4.9878856      2448.1381     -2.6124066    
     25000   1.4868377      4.9979362      2448.1381     -2.6128425    
     25100   1.4861015      4.9170894      2448.1381     -2.6112115    
     25200   1.5012372      4.8510657      2448.1381     -2.6124766    
     25300   1.4840309      5.062421       2448.1381     -2.6113253    
     25400   1.4935979      4.9229235      2448.1381     -2.6123904    
     25500   1.485725       4.946915       2448.1381     -2.6124727    
     25600   1.4942582      4.8867293      2448.1381     -2.6135616    
     25700   1.5137308      4.774458       2448.1381     -2.6122287    
     25800   1.4849899      4.9736451      2448.1381     -2.6123216    
     25900   1.4916319      4.8888779      2448.1381     -2.6127424    
     26000   1.4667241      5.058399       2448.1381     -2.6130709    
     26100   1.497647       4.9330529      2448.1381     -2.6122103    
     26200   1.4876751      4.9616795      2448.1381     -2.612406     
     26300   1.4863153      4.8887832      2448.1381     -2.6130306    
     26400   1.4914603      4.9274322      2448.1381     -2.6127141    
     26500   1.474269       5.0408185      2448.1381     -2.6126611    
     26600   1.476676       4.9864905      2448.1381     -2.6125992    
     26700   1.4904059      4.8968005      2448.1381     -2.6135962    
     26800   1.4944945      4.8745599      2448.1381     -2.6123848    
     26900   1.4832586      4.963319       2448.1381     -2.6130065    
     27000   1.4523344      5.1999714      2448.1381     -2.6124774    
     27100   1.4683307      5.0727943      2448.1381     -2.6126538    
     27200   1.4878273      4.9743886      2448.1381     -2.6123016    
     27300   1.4920457      4.9165433      2448.1381     -2.6129128    
     27400   1.5102032      4.8196256      2448.1381     -2.6136529    
     27500   1.4794421      4.9751232      2448.1381     -2.6123955    
     27600   1.4934092      4.9046521      2448.1381     -2.6129805    
     27700   1.4724961      5.0747378      2448.1381     -2.6112748    
     27800   1.5016107      4.8601691      2448.1381     -2.6106169    
     27900   1.4714591      5.1265442      2448.1381     -2.6121379    
     28000   1.4911135      4.8579354      2448.1381     -2.6117427    
     28100   1.5189519      4.7420972      2448.1381     -2.6127833    
     28200   1.5047095      4.7894459      2448.1381     -2.6135921    
     28300   1.511647       4.8000678      2448.1381     -2.6132616    
     28400   1.4670183      5.0659042      2448.1381     -2.6116264    
     28500   1.4892131      4.9493077      2448.1381     -2.6128646    
     28600   1.5006277      4.8303299      2448.1381     -2.612672     
     28700   1.4786812      4.9972065      2448.1381     -2.613165     
     28800   1.4769775      5.0378257      2448.1381     -2.6127958    
     28900   1.5085305      4.8214243      2448.1381     -2.6129298    
     29000   1.5126043      4.7727324      2448.1381     -2.6134456    
     29100   1.5034396      4.8861498      2448.1381     -2.6132838    
     29200   1.520061       4.7619858      2448.1381     -2.612676     
     29300   1.4874822      5.0053106      2448.1381     -2.6133219    
     29400   1.4906358      4.9173643      2448.1381     -2.6133989    
     29500   1.4863456      4.9947321      2448.1381     -2.6127768    
     29600   1.4907933      4.9345151      2448.1381     -2.612228     
     29700   1.4875685      4.9393643      2448.1381     -2.6126222    
     29800   1.4905781      4.8881198      2448.1381     -2.611837     
     29900   1.5114766      4.8144211      2448.1381     -2.6120463    
     30000   1.4952836      4.9360858      2448.1381     -2.612978     
     30100   1.4820728      4.9933834      2448.1381     -2.6118766    
     30200   1.520753       4.766327       2448.1381     -2.6119794    
     30300   1.5044553      4.8627486      2448.1381     -2.6124908    
     30400   1.5405998      4.5774239      2448.1381     -2.6133399    
     30500   1.4845038      4.9630481      2448.1381     -2.6116552    
     30600   1.4954958      4.8708891      2448.1381     -2.6116145    
     30700   1.4931736      4.8723345      2448.1381     -2.6133542    
     30800   1.4930198      4.8863859      2448.1381     -2.6121183    
     30900   1.4733954      5.0292363      2448.1381     -2.6126844    
     31000   1.4658636      5.0951931      2448.1381     -2.6116267    
     31100   1.4794342      4.9421672      2448.1381     -2.6127656    
     31200   1.494577       4.9023927      2448.1381     -2.6125642    
     31300   1.5242764      4.7179805      2448.1381     -2.6130916    
     31400   1.4743654      5.0560437      2448.1381     -2.6119819    
     31500   1.509834       4.8016051      2448.1381     -2.6130099    
     31600   1.4838974      4.9477734      2448.1381     -2.6126338    
     31700   1.492993       4.8863733      2448.1381     -2.6124187    
     31800   1.47072        4.9961735      2448.1381     -2.6124319    
     31900   1.5047513      4.8369633      2448.1381     -2.61285      
     32000   1.4812378      4.9190317      2448.1381     -2.6123064    
     32100   1.4802853      4.9599788      2448.1381     -2.6120861    
     32200   1.4945518      4.9148761      2448.1381     -2.6127684    
     32300   1.4729128      4.9708046      2448.1381     -2.6129843    
     32400   1.5027222      4.8294296      2448.1381     -2.6127589    
     32500   1.4796074      4.9939164      2448.1381     -2.6126154    
     32600   1.5062411      4.8203706      2448.1381     -2.6122943    
     32700   1.4909336      4.8946788      2448.1381     -2.6116974    
     32800   1.5186601      4.7805257      2448.1381     -2.6130142    
     32900   1.5141553      4.7580768      2448.1381     -2.6127657    
     33000   1.484869       4.9476849      2448.1381     -2.6133502    
     33100   1.4965208      4.8688704      2448.1381     -2.6126465    
     33200   1.4759787      5.0273186      2448.1381     -2.6115462    
     33300   1.4923569      4.9111393      2448.1381     -2.6130776    
     33400   1.475162       4.9992181      2448.1381     -2.6117164    
     33500   1.5107424      4.7250633      2448.1381     -2.6121302    
     33600   1.5052502      4.8628952      2448.1381     -2.6131791    
     33700   1.4906343      4.850997       2448.1381     -2.6131631    
     33800   1.4703819      5.0583724      2448.1381     -2.6117838    
     33900   1.4847789      4.9528525      2448.1381     -2.6121556    
     34000   1.4805125      4.9468529      2448.1381     -2.6117098    
     34100   1.4797622      5.0064732      2448.1381     -2.6122274    
     34200   1.5059405      4.7647781      2448.1381     -2.6125667    
     34300   1.4984584      4.8987254      2448.1381     -2.6119512    
     34400   1.4899833      4.9804272      2448.1381     -2.6117662    
     34500   1.527434       4.6680377      2448.1381     -2.6132216    
     34600   1.4728273      4.9879798      2448.1381     -2.612603     
     34700   1.4762588      5.0240231      2448.1381     -2.6120784    
     34800   1.4791166      4.9545305      2448.1381     -2.6123204    
     34900   1.4763081      5.0055149      2448.1381     -2.6131428    
     35000   1.512392       4.794049       2448.1381     -2.6130284    
     35100   1.4603313      5.1272656      2448.1381     -2.611631     
     35200   1.4903399      4.9369646      2448.1381     -2.6127574    
     35300   1.4946042      4.9386527      2448.1381     -2.612669     
     35400   1.4981086      4.9037556      2448.1381     -2.6122518    
     35500   1.4982869      4.9333088      2448.1381     -2.6123004    
     35600   1.503317       4.8432357      2448.1381     -2.6124988    
     35700   1.4760491      4.9921779      2448.1381     -2.6133986    
     35800   1.5177876      4.8095408      2448.1381     -2.6119827    
     35900   1.5012759      4.9384365      2448.1381     -2.6122601    
     36000   1.4810281      4.9924707      2448.1381     -2.6121809    
     36100   1.4855112      4.9579114      2448.1381     -2.6134581    
     36200   1.5390594      4.6274824      2448.1381     -2.6125036    
     36300   1.4965733      4.9237696      2448.1381     -2.6122274    
     36400   1.4864301      4.9978738      2448.1381     -2.6115977    
     36500   1.4908144      4.874649       2448.1381     -2.6128618    
     36600   1.5059004      4.7904164      2448.1381     -2.6134438    
     36700   1.5044262      4.8254104      2448.1381     -2.6133563    
     36800   1.4743759      5.012386       2448.1381     -2.611683     
     36900   1.4869977      4.9113444      2448.1381     -2.6137965    
     37000   1.4779233      5.0483194      2448.1381     -2.6118936    
     37100   1.4830826      4.9457579      2448.1381     -2.6129754    
     37200   1.4821088      4.9841363      2448.1381     -2.6135344    
     37300   1.5131828      4.7564954      2448.1381     -2.6140846    
     37400   1.4730689      5.0151387      2448.1381     -2.6136731    
     37500   1.4748743      4.9973478      2448.1381     -2.611661     
     37600   1.5137968      4.7863824      2448.1381     -2.6124032    
     37700   1.5125536      4.8048245      2448.1381     -2.6129865    
     37800   1.4465598      5.180026       2448.1381     -2.6114661    
     37900   1.5112872      4.8541373      2448.1381     -2.6110521    
     38000   1.4526117      5.1785547      2448.1381     -2.6127544    
     38100   1.4586056      5.1134389      2448.1381     -2.612097     
     38200   1.5027326      4.8070358      2448.1381     -2.6131621    
     38300   1.4815218      4.9457376      2448.1381     -2.6131962    
     38400   1.483543       4.9571723      2448.1381     -2.6122389    
     38500   1.4827878      4.9943783      2448.1381     -2.6125667    
     38600   1.5064588      4.7774329      2448.1381     -2.6128285    
     38700   1.490523       4.9268192      2448.1381     -2.612995     
     38800   1.4855432      4.8869522      2448.1381     -2.6132453    
     38900   1.4787869      4.9655177      2448.1381     -2.6127833    
     39000   1.4748751      5.0260158      2448.1381     -2.612045     
     39100   1.495747       4.8708273      2448.1381     -2.6137389    
     39200   1.5014684      4.8901116      2448.1381     -2.6128697    
     39300   1.4521804      5.1941892      2448.1381     -2.6123693    
     39400   1.4872298      4.9598736      2448.1381     -2.6121584    
     39500   1.4665458      5.081462       2448.1381     -2.6129549    
     39600   1.4635505      5.0523124      2448.1381     -2.6135009    
     39700   1.4842453      4.9466833      2448.1381     -2.6132135    
     39800   1.4777591      5.0149389      2448.1381     -2.6118942    
     39900   1.4943369      4.9148145      2448.1381     -2.6124924    
     40000   1.4864115      4.9227109      2448.1381     -2.6120164    
     40100   1.4756646      4.9826159      2448.1381     -2.6123041    
     40200   1.4888414      4.9121333      2448.1381     -2.6131103    
     40300   1.4700465      4.9956479      2448.1381     -2.6130956    
     40400   1.4960048      4.898274       2448.1381     -2.6122734    
     40500   1.5324234      4.6513393      2448.1381     -2.613539     
     40600   1.4719806      4.9815889      2448.1381     -2.6121174    
     40700   1.4964107      4.8966681      2448.1381     -2.6128173    
     40800   1.4839141      4.9800765      2448.1381     -2.6127278    
     40900   1.502385       4.8562143      2448.1381     -2.612442     
     41000   1.5105052      4.8100528      2448.1381     -2.6125247    
     41100   1.4971655      4.8857663      2448.1381     -2.613194     
     41200   1.5103546      4.8255197      2448.1381     -2.6124926    
     41300   1.4911049      4.912129       2448.1381     -2.6133003    
     41400   1.4653689      5.0827252      2448.1381     -2.6124355    
